# vtk DataFile Version 4.2
vtk output
ASCII
DATASET UNSTRUCTURED_GRID

POINTS 1 double
0.00295827 0.00576052 0.00492655

CELLS 1 2
1 0

CELL_TYPES 1
1

POINT_DATA 1
FIELD FieldData 10

ContactID_(#) 1 1 int
471

FaceID_(#) 1 1 int
11860

Friction_(-) 1 1 double
0.2

NormalStiffness_(N/m) 1 1 double
2000

TangentialStiffness_(N/m) 1 1 double
1000

NormalOverlap_(m) 1 1 double
2.28543e-06

TangentialOverlap_(m) 3 1 double
-1.89782e-07 -8.82078e-07 1.47083e-07

NormalForce_(N) 3 1 double
-0.00444963 0.00103594 0.000142889

TangentialForce_(N) 3 1 double
0.000189782 0.000882078 -0.000147083

TotalForce_(N) 3 1 double
-0.00425985 0.00191802 -4.19344e-06

