# vtk DataFile Version 4.2
vtk output
ASCII
DATASET UNSTRUCTURED_GRID

POINTS 1 double
0.00322291 0.00586339 0.00494812

CELLS 1 2
1 0

CELL_TYPES 1
1

POINT_DATA 1
FIELD FieldData 10

ContactID_(#) 1 1 int
471

FaceID_(#) 1 1 int
11860

Friction_(-) 1 1 double
0.2

NormalStiffness_(N/m) 1 1 double
2000

TangentialStiffness_(N/m) 1 1 double
1000

NormalOverlap_(m) 1 1 double
3.17683e-07

TangentialOverlap_(m) 3 1 double
-3.07537e-08 -1.20879e-07 2.42922e-08

NormalForce_(N) 3 1 double
-0.00061416 0.000161342 2.15889e-05

TangentialForce_(N) 3 1 double
3.07537e-05 0.000120879 -2.42922e-05

TotalForce_(N) 3 1 double
-0.000583406 0.000282221 -2.70333e-06

