# vtk DataFile Version 4.2
vtk output
ASCII
DATASET UNSTRUCTURED_GRID

POINTS 3 double
0.00135328 0.00652826 0.00428589
0.00133865 0.00609168 0.00492978
0.00140801 0.00722228 0.00502682

CELLS 3 6
1 0
1 1
1 2

CELL_TYPES 3
1
1
1

POINT_DATA 3
FIELD FieldData 10

ContactID_(#) 1 3 int
358
480
494

FaceID_(#) 1 3 int
14420
14420
13776

Friction_(-) 1 3 double
0.2
0.2
0.2

NormalStiffness_(N/m) 1 3 double
2000
2000
2000

TangentialStiffness_(N/m) 1 3 double
1000
1000
1000

NormalOverlap_(m) 1 3 double
4.18583e-06
9.02741e-06
8.28867e-06

TangentialOverlap_(m) 3 3 double
5.47737e-08 9.46689e-07 7.9815e-07
1.0365e-07 1.83277e-06 1.22812e-06
1.82042e-07 1.12306e-07 1.94999e-06

NormalForce_(N) 3 3 double
-0.00835489 0.000520044 9.98453e-05
-0.0180187 0.00112156 0.000215332
-0.0165457 0.00101092 0.00016247

TangentialForce_(N) 3 3 double
-5.47737e-05 -0.000946689 -0.00079815
-0.00010365 -0.00183277 -0.00122812
-0.000182042 -0.000112306 -0.00194999

TotalForce_(N) 3 3 double
-0.00840967 -0.000426645 -0.000698305
-0.0181223 -0.000711211 -0.00101279
-0.0167277 0.000898619 -0.00178752

