# vtk DataFile Version 4.2
vtk output
ASCII
DATASET UNSTRUCTURED_GRID

POINTS 7 double
0.000261669 0.00701585 0.00594719
0.000253162 0.00633001 0.00427821
0.000259268 0.00701597 0.00405542
0.000260235 0.00626021 0.00562613
0.000315866 0.00701749 0.00500253
0.000258716 0.00782448 0.00546847
0.000267974 0.00687294 0.00575919

CELLS 7 14
1 0
1 1
1 2
1 3
1 4
1 5
1 6

CELL_TYPES 7
1
1
1
1
1
1
1

POINT_DATA 7
FIELD FieldData 10

ContactID_(#) 1 7 int
270
358
360
406
494
576
747

FaceID_(#) 1 7 int
10716
14420
14148
14380
13776
13708
9608

Friction_(-) 1 7 double
0.2
0.2
0.2
0.2
0.2
0.2
0.2

NormalStiffness_(N/m) 1 7 double
2000
2000
2000
2000
2000
2000
2000

TangentialStiffness_(N/m) 1 7 double
1000
1000
1000
1000
1000
1000
1000

NormalOverlap_(m) 1 7 double
1.21749e-06
6.93295e-06
4.48736e-06
9.46665e-06
5.14635e-05
2.98865e-06
7.19728e-07

TangentialOverlap_(m) 3 7 double
-6.14745e-09 -3.5058e-07 3.37966e-07
-6.08998e-08 -2.55294e-06 -1.08135e-06
-4.52786e-08 -1.35712e-06 -1.17388e-06
-1.43965e-07 -3.48466e-06 1.47485e-06
-6.10831e-08 5.14726e-07 3.35946e-06
1.33513e-08 -9.76613e-07 6.89329e-07
1.44222e-08 2.53653e-07 -1.35401e-07

NormalForce_(N) 3 7 double
-0.00243365 -2.93631e-05 -7.50376e-05
-0.013862 0.000246934 0.00021997
-0.00897144 0.000122838 0.000209447
-0.0189195 0.000613734 -0.000379155
-0.102915 0.00137296 0.000748173
-0.00597682 -7.62674e-05 2.23519e-06
0.0014366 -3.77164e-05 8.23604e-05

TangentialForce_(N) 3 7 double
6.14745e-06 0.00035058 -0.000337966
6.08998e-05 0.00255294 0.00108135
4.52786e-05 0.00135712 0.00117388
0.000143965 0.00348466 -0.00147485
6.10831e-05 -0.000514726 -0.00335946
-1.33513e-05 0.000976613 -0.000689329
-1.44222e-05 -0.000253653 0.000135401

TotalForce_(N) 3 7 double
-0.0024275 0.000321217 -0.000413004
-0.0138011 0.00279987 0.00130132
-0.00892616 0.00147996 0.00138333
-0.0187756 0.0040984 -0.00185401
-0.102854 0.00085823 -0.00261129
-0.00599017 0.000900346 -0.000687094
0.00142218 -0.000291369 0.000217762

