# vtk DataFile Version 4.2
vtk output
ASCII
DATASET UNSTRUCTURED_GRID

POINTS 8 double
0.000163394 0.00701298 0.00594433
0.000153092 0.00632812 0.00427841
0.000159888 0.00701338 0.00405739
0.000161296 0.00625885 0.00562522
0.000218606 0.00701338 0.00500239
0.000153764 0.00782867 0.00454466
0.000159672 0.00781965 0.00546664
0.000168683 0.00686398 0.00576139

CELLS 8 16
1 0
1 1
1 2
1 3
1 4
1 5
1 6
1 7

CELL_TYPES 8
1
1
1
1
1
1
1
1

POINT_DATA 8
FIELD FieldData 10

ContactID_(#) 1 8 int
270
358
360
406
494
521
576
747

FaceID_(#) 1 8 int
10716
14420
14148
14380
13776
13824
13708
9608

Friction_(-) 1 8 double
0.2
0.2
0.2
0.2
0.2
0.2
0.2
0.2

NormalStiffness_(N/m) 1 8 double
2000
2000
2000
2000
2000
2000
2000
2000

TangentialStiffness_(N/m) 1 8 double
1000
1000
1000
1000
1000
1000
1000
1000

NormalOverlap_(m) 1 8 double
2.00711e-06
6.84464e-06
5.65228e-06
9.42053e-06
5.42886e-05
1.72551e-06
4.88417e-06
1.32048e-06

TangentialOverlap_(m) 3 8 double
-2.40941e-08 9.40946e-08 7.96949e-07
-2.82527e-08 -2.56578e-06 9.54903e-07
-6.1535e-08 -2.15177e-06 -6.91231e-07
-8.45992e-08 -2.49432e-06 -7.71754e-07
3.70936e-09 5.40708e-06 3.72449e-06
7.85271e-09 -4.31787e-07 8.46132e-08
2.75866e-08 -1.95025e-06 1.12246e-07
2.90261e-08 -6.46145e-08 -5.23422e-07

NormalForce_(N) 3 8 double
-0.00401219 -5.4048e-05 -0.000116
-0.0136857 0.000230444 0.000213567
-0.0113009 0.000155169 0.000239922
-0.0188281 0.000602319 -0.000351315
-0.108564 0.00141542 0.000902533
-0.00345035 -6.64246e-05 1.72914e-05
-0.00976736 -0.000138537 1.1237e-05
0.00263544 -7.27126e-05 0.000154471

TangentialForce_(N) 3 8 double
2.40941e-05 -9.40946e-05 -0.000796949
2.82527e-05 0.00256578 -0.000954903
6.1535e-05 0.00215177 0.000691231
8.45992e-05 0.00249432 0.000771754
-3.70936e-06 -0.00540708 -0.00372449
-7.85271e-06 0.000431787 -8.46132e-05
-2.75866e-05 0.00195025 -0.000112246
-2.90261e-05 6.46145e-05 0.000523422

TotalForce_(N) 3 8 double
-0.0039881 -0.000148143 -0.000912949
-0.0136574 0.00279622 -0.000741336
-0.0112394 0.00230694 0.000931154
-0.0187435 0.00309664 0.000420439
-0.108568 -0.00399166 -0.00282196
-0.0034582 0.000365363 -6.73219e-05
-0.00979495 0.00181171 -0.000101009
0.00260642 -8.09812e-06 0.000677893

