# vtk DataFile Version 4.2
vtk output
ASCII
DATASET UNSTRUCTURED_GRID

POINTS 5 double
0.000444645 0.00634294 0.00427233
0.000450178 0.00703073 0.00404503
0.000450419 0.00627107 0.00563223
0.000432435 0.00590898 0.00490667
0.000504129 0.00703557 0.00500277

CELLS 5 10
1 0
1 1
1 2
1 3
1 4

CELL_TYPES 5
1
1
1
1
1

POINT_DATA 5
FIELD FieldData 10

ContactID_(#) 1 5 int
358
360
406
480
494

FaceID_(#) 1 5 int
14420
14148
14380
14420
13776

Friction_(-) 1 5 double
0.2
0.2
0.2
0.2
0.2

NormalStiffness_(N/m) 1 5 double
2000
2000
2000
2000
2000

TangentialStiffness_(N/m) 1 5 double
1000
1000
1000
1000
1000

NormalOverlap_(m) 1 5 double
1.08686e-05
6.66484e-07
1.13237e-05
9.1558e-07
4.41193e-05

TangentialOverlap_(m) 3 5 double
-1.24483e-07 -4.02162e-06 -1.64661e-06
-7.91178e-09 -2.54221e-07 -7.98817e-08
-1.61177e-07 -4.47917e-06 -6.53649e-07
-8.15196e-09 -3.50505e-07 1.05858e-07
-2.86656e-07 -1.1992e-05 2.23554e-06

NormalForce_(N) 3 5 double
-0.0217257 0.000615624 0.000344073
-0.00133222 3.23102e-05 3.10202e-05
-0.0226258 0.000923769 -0.000354127
-0.0018302 5.18608e-05 2.89851e-05
-0.0882096 0.00214459 0.000713776

TangentialForce_(N) 3 5 double
0.000124483 0.00402162 0.00164661
7.91178e-06 0.000254221 7.98817e-05
0.000161177 0.00447917 0.000653649
8.15196e-06 0.000350505 -0.000105858
0.000286656 0.011992 -0.00223554

TotalForce_(N) 3 5 double
-0.0216013 0.00463724 0.00199068
-0.0013243 0.000286531 0.000110902
-0.0224646 0.00540294 0.000299523
-0.00182204 0.000402365 -7.68731e-05
-0.087923 0.0141366 -0.00152176

