# vtk DataFile Version 4.2
vtk output
ASCII
DATASET UNSTRUCTURED_GRID

POINTS 3 double
0.00114448 0.00647978 0.00428024
0.00113141 0.00604326 0.00492429
0.00119971 0.00717515 0.00502086

CELLS 3 6
1 0
1 1
1 2

CELL_TYPES 3
1
1
1

POINT_DATA 3
FIELD FieldData 10

ContactID_(#) 1 3 int
358
480
494

FaceID_(#) 1 3 int
14420
14420
13776

Friction_(-) 1 3 double
0.2
0.2
0.2

NormalStiffness_(N/m) 1 3 double
2000
2000
2000

TangentialStiffness_(N/m) 1 3 double
1000
1000
1000

NormalOverlap_(m) 1 3 double
4.99604e-06
5.74424e-06
1.73858e-05

TangentialOverlap_(m) 3 3 double
9.86671e-08 1.76576e-06 9.30608e-07
1.13888e-07 2.04955e-06 1.03237e-06
3.11968e-07 2.27462e-06 2.55643e-06

NormalForce_(N) 3 3 double
-0.00997833 0.000507674 0.000130056
-0.0114727 0.000583702 0.000149532
-0.0347281 0.00170585 0.000338172

TangentialForce_(N) 3 3 double
-9.86671e-05 -0.00176576 -0.000930608
-0.000113888 -0.00204955 -0.00103237
-0.000311968 -0.00227462 -0.00255643

TotalForce_(N) 3 3 double
-0.010077 -0.00125808 -0.000800553
-0.0115866 -0.00146584 -0.000882842
-0.0350401 -0.00056877 -0.00221825

