# vtk DataFile Version 4.2
vtk output
ASCII
DATASET UNSTRUCTURED_GRID

POINTS 1 double
0.00222187 0.00634116 0.00497494

CELLS 1 2
1 0

CELL_TYPES 1
1

POINT_DATA 1
FIELD FieldData 10

ContactID_(#) 1 1 int
480

FaceID_(#) 1 1 int
14420

Friction_(-) 1 1 double
0.2

NormalStiffness_(N/m) 1 1 double
2000

TangentialStiffness_(N/m) 1 1 double
1000

NormalOverlap_(m) 1 1 double
9.28803e-06

TangentialOverlap_(m) 3 1 double
-2.10179e-07 -3.04796e-06 2.11391e-06

NormalForce_(N) 3 1 double
-0.0184004 0.00252501 0.000344439

TangentialForce_(N) 3 1 double
0.000210179 0.00304796 -0.00211391

TotalForce_(N) 3 1 double
-0.0181903 0.00557296 -0.00176947

