# vtk DataFile Version 4.2
vtk output
ASCII
DATASET UNSTRUCTURED_GRID

POINTS 1 double
0.00212874 0.00631014 0.00496897

CELLS 1 2
1 0

CELL_TYPES 1
1

POINT_DATA 1
FIELD FieldData 10

ContactID_(#) 1 1 int
480

FaceID_(#) 1 1 int
14420

Friction_(-) 1 1 double
0.2

NormalStiffness_(N/m) 1 1 double
2000

TangentialStiffness_(N/m) 1 1 double
1000

NormalOverlap_(m) 1 1 double
1.12747e-05

TangentialOverlap_(m) 3 1 double
-3.48742e-07 -4.03948e-06 1.46888e-06

NormalForce_(N) 3 1 double
-0.0223626 0.00287106 0.000386672

TangentialForce_(N) 3 1 double
0.000348742 0.00403948 -0.00146888

TotalForce_(N) 3 1 double
-0.0220138 0.00691054 -0.0010822

