# vtk DataFile Version 4.2
vtk output
ASCII
DATASET UNSTRUCTURED_GRID

POINTS 1 double
0.00240808 0.0064049 0.00498756

CELLS 1 2
1 0

CELL_TYPES 1
1

POINT_DATA 1
FIELD FieldData 10

ContactID_(#) 1 1 int
480

FaceID_(#) 1 1 int
14420

Friction_(-) 1 1 double
0.2

NormalStiffness_(N/m) 1 1 double
2000

TangentialStiffness_(N/m) 1 1 double
1000

NormalOverlap_(m) 1 1 double
5.4856e-06

TangentialOverlap_(m) 3 1 double
6.3323e-08 -5.20606e-07 2.13065e-06

NormalForce_(N) 3 1 double
-0.0108385 0.00168457 0.00023632

TangentialForce_(N) 3 1 double
-6.3323e-05 0.000520606 -0.00213065

TotalForce_(N) 3 1 double
-0.0109018 0.00220518 -0.00189433

