# vtk DataFile Version 4.2
vtk output
ASCII
DATASET UNSTRUCTURED_GRID

POINTS 4 double
0.000936634 0.00643205 0.00427381
0.000939045 0.0063589 0.00565895
0.000924213 0.00599502 0.00491763
0.000992532 0.00712948 0.0050144

CELLS 4 8
1 0
1 1
1 2
1 3

CELL_TYPES 4
1
1
1
1

POINT_DATA 4
FIELD FieldData 10

ContactID_(#) 1 4 int
358
406
480
494

FaceID_(#) 1 4 int
14420
14380
14420
13776

Friction_(-) 1 4 double
0.2
0.2
0.2
0.2

NormalStiffness_(N/m) 1 4 double
2000
2000
2000
2000

TangentialStiffness_(N/m) 1 4 double
1000
1000
1000
1000

NormalOverlap_(m) 1 4 double
5.9316e-06
1.36078e-07
4.45109e-06
2.40437e-05

TangentialOverlap_(m) 3 4 double
1.08013e-07 2.2545e-06 7.31429e-07
2.6418e-09 5.43671e-08 -2.38281e-11
8.07629e-08 1.65654e-06 6.47544e-07
8.5369e-08 -2.58066e-06 1.30922e-06

NormalForce_(N) 3 4 double
-0.0118507 0.000523474 0.000153972
-0.000271836 1.32131e-05 -1.4376e-07
-0.00889276 0.000392816 0.000115541
-0.048043 0.00201977 0.000431188

TangentialForce_(N) 3 4 double
-0.000108013 -0.0022545 -0.000731429
-2.6418e-06 -5.43671e-05 2.38281e-08
-8.07629e-05 -0.00165654 -0.000647544
-8.5369e-05 0.00258066 -0.00130922

TotalForce_(N) 3 4 double
-0.0119587 -0.00173103 -0.000577456
-0.000274477 -4.1154e-05 -1.19931e-07
-0.00897352 -0.00126372 -0.000532003
-0.0481283 0.00460043 -0.000878031

