# vtk DataFile Version 4.2
vtk output
ASCII
DATASET UNSTRUCTURED_GRID

POINTS 2 double
0.00176709 0.00662899 0.00430194
0.00174834 0.00619485 0.00494617

CELLS 2 4
1 0
1 1

CELL_TYPES 2
1
1

POINT_DATA 2
FIELD FieldData 10

ContactID_(#) 1 2 int
358
480

FaceID_(#) 1 2 int
14420
14420

Friction_(-) 1 2 double
0.2
0.2

NormalStiffness_(N/m) 1 2 double
2000
2000

TangentialStiffness_(N/m) 1 2 double
1000
1000

NormalOverlap_(m) 1 2 double
1.0872e-06
1.45796e-05

TangentialOverlap_(m) 3 2 double
-3.98678e-08 -4.2443e-07 -8.59743e-08
-3.13633e-07 -3.12849e-06 -1.09691e-06

NormalForce_(N) 3 2 double
-0.00216479 0.000202405 2.78675e-05
-0.0290303 0.0027143 0.000373709

TangentialForce_(N) 3 2 double
3.98678e-05 0.00042443 8.59743e-05
0.000313633 0.00312849 0.00109691

TotalForce_(N) 3 2 double
-0.00212492 0.000626835 0.000113842
-0.0287166 0.00584279 0.00147062

