# vtk DataFile Version 4.2
vtk output
ASCII
DATASET UNSTRUCTURED_GRID

POINTS 1 double
0.00278056 0.00569174 0.00491297

CELLS 1 2
1 0

CELL_TYPES 1
1

POINT_DATA 1
FIELD FieldData 10

ContactID_(#) 1 1 int
471

FaceID_(#) 1 1 int
11860

Friction_(-) 1 1 double
0.2

NormalStiffness_(N/m) 1 1 double
2000

TangentialStiffness_(N/m) 1 1 double
1000

NormalOverlap_(m) 1 1 double
2.92509e-06

TangentialOverlap_(m) 3 1 double
-1.12658e-07 -5.31715e-07 -2.6974e-08

NormalForce_(N) 3 1 double
-0.0057195 0.00121755 0.000172048

TangentialForce_(N) 3 1 double
0.000112658 0.000531715 2.6974e-05

TotalForce_(N) 3 1 double
-0.00560684 0.00174926 0.000199022

