# vtk DataFile Version 4.2
vtk output
ASCII
DATASET UNSTRUCTURED_GRID

POINTS 4 double
0.00035134 0.00633336 0.00427476
0.000357473 0.00702041 0.00404968
0.000357876 0.00626246 0.0056287
0.000412889 0.00702384 0.00500207

CELLS 4 8
1 0
1 1
1 2
1 3

CELL_TYPES 4
1
1
1
1

POINT_DATA 4
FIELD FieldData 10

ContactID_(#) 1 4 int
358
360
406
494

FaceID_(#) 1 4 int
14420
14148
14380
13776

Friction_(-) 1 4 double
0.2
0.2
0.2
0.2

NormalStiffness_(N/m) 1 4 double
2000
2000
2000
2000

TangentialStiffness_(N/m) 1 4 double
1000
1000
1000
1000

NormalOverlap_(m) 1 4 double
8.70351e-06
2.87174e-06
1.11527e-05
4.86188e-05

TangentialOverlap_(m) 3 4 double
-9.03889e-08 -3.1556e-06 -1.46772e-06
-3.36818e-08 -8.55145e-07 -7.66219e-07
-1.70113e-07 -4.37252e-06 8.67912e-07
-1.94007e-07 -7.78274e-06 2.80628e-06

NormalForce_(N) 3 4 double
-0.0174003 0.000398036 0.000276491
-0.00574081 0.000104376 0.000140239
-0.0222865 0.000812341 -0.000426771
-0.097219 0.00177446 0.000677725

TangentialForce_(N) 3 4 double
9.03889e-05 0.0031556 0.00146772
3.36818e-05 0.000855145 0.000766219
0.000170113 0.00437252 -0.000867912
0.000194007 0.00778274 -0.00280628

TotalForce_(N) 3 4 double
-0.0173099 0.00355363 0.00174421
-0.00570713 0.000959521 0.000906458
-0.0221164 0.00518486 -0.00129468
-0.097025 0.0095572 -0.00212855

