# vtk DataFile Version 4.2
vtk output
ASCII
DATASET UNSTRUCTURED_GRID

POINTS 3 double
0.00145866 0.0065532 0.0042889
0.00144294 0.00611665 0.00493275
0.00151317 0.00724616 0.00503008

CELLS 3 6
1 0
1 1
1 2

CELL_TYPES 3
1
1
1

POINT_DATA 3
FIELD FieldData 10

ContactID_(#) 1 3 int
358
480
494

FaceID_(#) 1 3 int
14420
14420
13776

Friction_(-) 1 3 double
0.2
0.2
0.2

NormalStiffness_(N/m) 1 3 double
2000
2000
2000

TangentialStiffness_(N/m) 1 3 double
1000
1000
1000

NormalOverlap_(m) 1 3 double
4.05771e-06
1.12161e-05
3.36751e-06

TangentialOverlap_(m) 3 3 double
-1.66959e-09 2.11497e-07 1.10065e-07
4.37856e-08 1.05389e-06 4.8184e-07
-1.87056e-09 -1.08758e-06 7.94722e-07

NormalForce_(N) 3 3 double
-0.00809559 0.000559412 9.15025e-05
-0.0223774 0.00154629 0.000252926
-0.00671908 0.000458596 6.53805e-05

TangentialForce_(N) 3 3 double
1.66959e-06 -0.000211497 -0.000110065
-4.37856e-05 -0.00105389 -0.00048184
1.87056e-06 0.00108758 -0.000794722

TotalForce_(N) 3 3 double
-0.00809392 0.000347914 -1.85625e-05
-0.0224211 0.000492398 -0.000228914
-0.0067172 0.00154618 -0.000729341

