# vtk DataFile Version 4.2
vtk output
ASCII
DATASET UNSTRUCTURED_GRID

POINTS 4 double
0.000731463 0.00639085 0.00426979
0.000734805 0.00631714 0.00564987
0.00071916 0.00595366 0.00491162
0.000787624 0.00708846 0.00500898

CELLS 4 8
1 0
1 1
1 2
1 3

CELL_TYPES 4
1
1
1
1

POINT_DATA 4
FIELD FieldData 10

ContactID_(#) 1 4 int
358
406
480
494

FaceID_(#) 1 4 int
14420
14380
14420
13776

Friction_(-) 1 4 double
0.2
0.2
0.2
0.2

NormalStiffness_(N/m) 1 4 double
2000
2000
2000
2000

TangentialStiffness_(N/m) 1 4 double
1000
1000
1000
1000

NormalOverlap_(m) 1 4 double
7.70097e-06
3.89359e-06
4.17637e-06
2.95963e-05

TangentialOverlap_(m) 3 4 double
8.35953e-08 9.68108e-07 4.74432e-07
4.20399e-08 5.58983e-07 -1.45306e-06
6.04243e-08 1.13114e-06 1.22784e-06
-2.15073e-07 -1.01052e-05 1.24502e-06

NormalForce_(N) 3 4 double
-0.0153886 0.000607843 0.000203667
-0.00777896 0.000356198 -3.23776e-05
-0.00834549 0.000329644 0.000110452
-0.0591501 0.00218882 0.000503192

TangentialForce_(N) 3 4 double
-8.35953e-05 -0.000968108 -0.000474432
-4.20399e-05 -0.000558983 0.00145306
-6.04243e-05 -0.00113114 -0.00122784
0.000215073 0.0101052 -0.00124502

TotalForce_(N) 3 4 double
-0.0154722 -0.000360265 -0.000270764
-0.007821 -0.000202784 0.00142068
-0.00840592 -0.000801494 -0.00111739
-0.058935 0.012294 -0.000741824

