# vtk DataFile Version 4.2
vtk output
ASCII
DATASET UNSTRUCTURED_GRID

POINTS 4 double
0.000833115 0.00640999 0.00427128
0.000835995 0.00633667 0.00565436
0.000820639 0.00597287 0.00491451
0.00088924 0.00710818 0.00501155

CELLS 4 8
1 0
1 1
1 2
1 3

CELL_TYPES 4
1
1
1
1

POINT_DATA 4
FIELD FieldData 10

ContactID_(#) 1 4 int
358
406
480
494

FaceID_(#) 1 4 int
14420
14380
14420
13776

Friction_(-) 1 4 double
0.2
0.2
0.2
0.2

NormalStiffness_(N/m) 1 4 double
2000
2000
2000
2000

TangentialStiffness_(N/m) 1 4 double
1000
1000
1000
1000

NormalOverlap_(m) 1 4 double
6.58171e-06
1.69431e-06
4.09494e-06
2.65296e-05

TangentialOverlap_(m) 3 4 double
1.25087e-07 2.54371e-06 6.67012e-07
3.16821e-08 6.68062e-07 -1.09535e-07
7.06142e-08 1.49091e-06 6.74664e-07
-8.72746e-08 -6.68695e-06 7.7562e-07

NormalForce_(N) 3 4 double
-0.0131507 0.000552583 0.000171342
-0.00338485 0.000159522 -6.51299e-06
-0.00818197 0.0003438 0.000106604
-0.0530154 0.00210719 0.000463125

TangentialForce_(N) 3 4 double
-0.000125087 -0.00254371 -0.000667012
-3.16821e-05 -0.000668062 0.000109535
-7.06142e-05 -0.00149091 -0.000674664
8.72746e-05 0.00668695 -0.00077562

TotalForce_(N) 3 4 double
-0.0132758 -0.00199113 -0.000495669
-0.00341654 -0.00050854 0.000103022
-0.00825259 -0.00114711 -0.000568059
-0.0529281 0.00879414 -0.000312495

