# vtk DataFile Version 4.2
vtk output
ASCII
DATASET UNSTRUCTURED_GRID

POINTS 3 double
0.00104047 0.0064556 0.00427693
0.00102788 0.0060189 0.00492099
0.00109601 0.00715196 0.00501757

CELLS 3 6
1 0
1 1
1 2

CELL_TYPES 3
1
1
1

POINT_DATA 3
FIELD FieldData 10

ContactID_(#) 1 3 int
358
480
494

FaceID_(#) 1 3 int
14420
14420
13776

Friction_(-) 1 3 double
0.2
0.2
0.2

NormalStiffness_(N/m) 1 3 double
2000
2000
2000

TangentialStiffness_(N/m) 1 3 double
1000
1000
1000

NormalOverlap_(m) 1 3 double
5.42535e-06
4.83841e-06
2.11004e-05

TangentialOverlap_(m) 3 3 double
1.02751e-07 2.01077e-06 8.09774e-07
9.18131e-08 1.78506e-06 7.42136e-07
2.35335e-07 7.40294e-07 2.02e-06

NormalForce_(N) 3 3 double
-0.0108379 0.000507938 0.00014244
-0.00966538 0.000452988 0.000127031
-0.0421565 0.0018911 0.000394864

TangentialForce_(N) 3 3 double
-0.000102751 -0.00201077 -0.000809774
-9.18131e-05 -0.00178506 -0.000742136
-0.000235335 -0.000740294 -0.00202

TotalForce_(N) 3 3 double
-0.0109406 -0.00150284 -0.000667334
-0.0097572 -0.00133207 -0.000615105
-0.0423918 0.0011508 -0.00162514

