# vtk DataFile Version 4.2
vtk output
ASCII
DATASET UNSTRUCTURED_GRID

POINTS 3 double
0.00124859 0.00650393 0.00428323
0.00123483 0.0060674 0.00492715
0.00130355 0.0071986 0.00502393

CELLS 3 6
1 0
1 1
1 2

CELL_TYPES 3
1
1
1

POINT_DATA 3
FIELD FieldData 10

ContactID_(#) 1 3 int
358
480
494

FaceID_(#) 1 3 int
14420
14420
13776

Friction_(-) 1 3 double
0.2
0.2
0.2

NormalStiffness_(N/m) 1 3 double
2000
2000
2000

TangentialStiffness_(N/m) 1 3 double
1000
1000
1000

NormalOverlap_(m) 1 3 double
4.57253e-06
7.19329e-06
1.31265e-05

TangentialOverlap_(m) 3 3 double
9.02877e-08 1.49625e-06 1.04804e-06
1.42232e-07 2.42855e-06 1.46677e-06
2.90822e-07 1.89309e-06 2.50164e-06

NormalForce_(N) 3 3 double
-0.00913002 0.000511644 0.000114591
-0.0143629 0.000804895 0.000180269
-0.0262127 0.00143074 0.000257602

TangentialForce_(N) 3 3 double
-9.02877e-05 -0.00149625 -0.00104804
-0.000142232 -0.00242855 -0.00146677
-0.000290822 -0.00189309 -0.00250164

TotalForce_(N) 3 3 double
-0.00922031 -0.000984603 -0.000933446
-0.0145052 -0.00162365 -0.0012865
-0.0265036 -0.000462356 -0.00224404

