# vtk DataFile Version 4.2
vtk output
ASCII
DATASET UNSTRUCTURED_GRID

POINTS 1 double
0.00231495 0.00637279 0.00498112

CELLS 1 2
1 0

CELL_TYPES 1
1

POINT_DATA 1
FIELD FieldData 10

ContactID_(#) 1 1 int
480

FaceID_(#) 1 1 int
14420

Friction_(-) 1 1 double
0.2

NormalStiffness_(N/m) 1 1 double
2000

TangentialStiffness_(N/m) 1 1 double
1000

NormalOverlap_(m) 1 1 double
7.31489e-06

TangentialOverlap_(m) 3 1 double
-5.31165e-08 -1.75742e-06 2.33877e-06

NormalForce_(N) 3 1 double
-0.0144729 0.00211639 0.000293128

TangentialForce_(N) 3 1 double
5.31165e-05 0.00175742 -0.00233877

TotalForce_(N) 3 1 double
-0.0144198 0.00387381 -0.00204565

