# vtk DataFile Version 4.2
vtk output
ASCII
DATASET UNSTRUCTURED_GRID

POINTS 1 double
0.00259466 0.00647078 0.00500149

CELLS 1 2
1 0

CELL_TYPES 1
1

POINT_DATA 1
FIELD FieldData 10

ContactID_(#) 1 1 int
480

FaceID_(#) 1 1 int
14420

Friction_(-) 1 1 double
0.2

NormalStiffness_(N/m) 1 1 double
2000

TangentialStiffness_(N/m) 1 1 double
1000

NormalOverlap_(m) 1 1 double
2.49239e-06

TangentialOverlap_(m) 3 1 double
9.86763e-08 4.28351e-07 8.9482e-07

NormalForce_(N) 3 1 double
-0.00490927 0.000855814 0.000121285

TangentialForce_(N) 3 1 double
-9.86763e-05 -0.000428351 -0.00089482

TotalForce_(N) 3 1 double
-0.00500795 0.000427463 -0.000773535

