# vtk DataFile Version 4.2
vtk output
ASCII
DATASET UNSTRUCTURED_GRID

POINTS 0 double

CELLS 0 0

CELL_TYPES 0

POINT_DATA 0
FIELD FieldData 10

ContactID_(#) 1 0 int

FaceID_(#) 1 0 int

Friction_(-) 1 0 double

NormalStiffness_(N/m) 1 0 double

TangentialStiffness_(N/m) 1 0 double

NormalOverlap_(m) 1 0 double

TangentialOverlap_(m) 3 0 double

NormalForce_(N) 3 0 double

TangentialForce_(N) 3 0 double

TotalForce_(N) 3 0 double

