# vtk DataFile Version 4.2
vtk output
ASCII
DATASET UNSTRUCTURED_GRID

POINTS 8 double
6.50133e-05 0.00700889 0.00595165
5.49998e-05 0.00632096 0.00427014
6.23094e-05 0.00700819 0.00404806
6.2923e-05 0.00625235 0.00563165
0.00012411 0.0070089 0.00500086
5.46955e-05 0.00783668 0.00453971
5.94318e-05 0.00782847 0.00547039
6.90717e-05 0.00686254 0.00576716

CELLS 8 16
1 0
1 1
1 2
1 3
1 4
1 5
1 6
1 7

CELL_TYPES 8
1
1
1
1
1
1
1
1

POINT_DATA 8
FIELD FieldData 10

ContactID_(#) 1 8 int
270
358
360
406
494
521
576
747

FaceID_(#) 1 8 int
10716
14420
14148
14380
13776
13824
13708
9608

Friction_(-) 1 8 double
0.2
0.2
0.2
0.2
0.2
0.2
0.2
0.2

NormalStiffness_(N/m) 1 8 double
2000
2000
2000
2000
2000
2000
2000
2000

TangentialStiffness_(N/m) 1 8 double
1000
1000
1000
1000
1000
1000
1000
1000

NormalOverlap_(m) 1 8 double
2.8595e-06
2.96085e-06
5.81407e-06
5.69915e-06
5.90545e-05
2.49546e-06
6.02136e-06
3.14208e-06

TangentialOverlap_(m) 3 8 double
6.6647e-10 9.50973e-07 -6.35551e-07
1.69398e-08 2.58582e-07 1.14609e-06
3.35748e-08 1.24335e-06 1.91774e-06
4.3256e-08 1.30981e-06 -1.49145e-06
2.6161e-08 6.92261e-06 4.45068e-06
1.54759e-08 -9.35695e-07 3.47285e-07
2.97839e-08 -1.98932e-06 -1.3575e-06
3.78387e-09 -1.11127e-06 -5.87108e-07

NormalForce_(N) 3 8 double
-0.00571648 -8.78313e-05 -0.000145002
-0.00592072 6.62312e-05 8.54326e-05
-0.011626 0.000115912 0.000193654
-0.0113937 0.000262892 -0.000185938
-0.118103 0.000834095 0.000776972
-0.00499012 -8.87899e-05 9.3313e-06
-0.0120412 -0.000193498 6.84218e-06
0.00626941 -0.000182269 0.000389769

TangentialForce_(N) 3 8 double
-6.6647e-07 -0.000950973 0.000635551
-1.69398e-05 -0.000258582 -0.00114609
-3.35748e-05 -0.00124335 -0.00191774
-4.3256e-05 -0.00130981 0.00149145
-2.6161e-05 -0.00692261 -0.00445068
-1.54759e-05 0.000935695 -0.000347285
-2.97839e-05 0.00198932 0.0013575
-3.78387e-06 0.00111127 0.000587108

TotalForce_(N) 3 8 double
-0.00571714 -0.0010388 0.000490549
-0.00593766 -0.000192351 -0.00106065
-0.0116595 -0.00112744 -0.00172409
-0.011437 -0.00104692 0.00130551
-0.11813 -0.00608852 -0.00367371
-0.0050056 0.000846905 -0.000337954
-0.012071 0.00179582 0.00136434
0.00626563 0.000928998 0.000976878

