# vtk DataFile Version 4.2
vtk output
ASCII
DATASET UNSTRUCTURED_GRID

POINTS 1 double
0.00269149 0.00565744 0.00490628

CELLS 1 2
1 0

CELL_TYPES 1
1

POINT_DATA 1
FIELD FieldData 10

ContactID_(#) 1 1 int
471

FaceID_(#) 1 1 int
11860

Friction_(-) 1 1 double
0.2

NormalStiffness_(N/m) 1 1 double
2000

TangentialStiffness_(N/m) 1 1 double
1000

NormalOverlap_(m) 1 1 double
2.57405e-06

TangentialOverlap_(m) 3 1 double
2.13037e-09 2.18551e-08 -4.78613e-08

NormalForce_(N) 3 1 double
-0.00504319 0.00102368 0.000145966

TangentialForce_(N) 3 1 double
-2.13037e-06 -2.18551e-05 4.78613e-05

TotalForce_(N) 3 1 double
-0.00504532 0.00100183 0.000193827

