# vtk DataFile Version 4.2
vtk output
ASCII
DATASET UNSTRUCTURED_GRID

POINTS 4 double
0.000632738 0.0063731 0.00426973
0.000636739 0.0062993 0.00564414
0.000620594 0.00593601 0.0049092
0.000689377 0.00706931 0.00500674

CELLS 4 8
1 0
1 1
1 2
1 3

CELL_TYPES 4
1
1
1
1

POINT_DATA 4
FIELD FieldData 10

ContactID_(#) 1 4 int
358
406
480
494

FaceID_(#) 1 4 int
14420
14380
14420
13776

Friction_(-) 1 4 double
0.2
0.2
0.2
0.2

NormalStiffness_(N/m) 1 4 double
2000
2000
2000
2000

TangentialStiffness_(N/m) 1 4 double
1000
1000
1000
1000

NormalOverlap_(m) 1 4 double
9.09093e-06
6.23184e-06
3.89785e-06
3.34607e-05

TangentialOverlap_(m) 3 4 double
-6.00121e-08 -2.30841e-06 -9.03275e-07
-5.69357e-08 -1.84711e-06 -1.67292e-06
3.17435e-08 2.37578e-07 1.54061e-06
-3.08146e-07 -1.2731e-05 1.25969e-06

NormalForce_(N) 3 4 double
-0.018168 0.000663159 0.00025593
-0.012451 0.000554981 -8.88248e-05
-0.00778975 0.000284338 0.000109733
-0.0668811 0.00224957 0.00057707

TangentialForce_(N) 3 4 double
6.00121e-05 0.00230841 0.000903275
5.69357e-05 0.00184711 0.00167292
-3.17435e-05 -0.000237578 -0.00154061
0.000308146 0.012731 -0.00125969

TotalForce_(N) 3 4 double
-0.018108 0.00297157 0.0011592
-0.0123941 0.00240209 0.00158409
-0.00782149 4.67598e-05 -0.00143087
-0.0665729 0.0149805 -0.000682625

