# vtk DataFile Version 4.2
vtk output
ASCII
DATASET UNSTRUCTURED_GRID

POINTS 4 double
0.000536974 0.00635646 0.00427074
0.000541817 0.00628335 0.00563787
0.000524803 0.00592067 0.00490769
0.000594749 0.00705095 0.00500469

CELLS 4 8
1 0
1 1
1 2
1 3

CELL_TYPES 4
1
1
1
1

POINT_DATA 4
FIELD FieldData 10

ContactID_(#) 1 4 int
358
406
480
494

FaceID_(#) 1 4 int
14420
14380
14420
13776

Friction_(-) 1 4 double
0.2
0.2
0.2
0.2

NormalStiffness_(N/m) 1 4 double
2000
2000
2000
2000

TangentialStiffness_(N/m) 1 4 double
1000
1000
1000
1000

NormalOverlap_(m) 1 4 double
1.06066e-05
8.88228e-06
2.81773e-06
3.87811e-05

TangentialOverlap_(m) 3 4 double
-1.26846e-07 -3.94905e-06 -1.54558e-06
-1.15634e-07 -3.29726e-06 -1.31828e-06
-1.22254e-08 -7.92164e-07 8.01663e-07
-3.35716e-07 -1.3679e-05 1.62145e-06

NormalForce_(N) 3 4 double
-0.0211994 0.000691544 0.000327434
-0.0177474 0.000756939 -0.000194701
-0.00563179 0.000183715 8.69857e-05
-0.0775267 0.00225238 0.000667639

TangentialForce_(N) 3 4 double
0.000126846 0.00394905 0.00154558
0.000115634 0.00329726 0.00131828
1.22254e-05 0.000792164 -0.000801663
0.000335716 0.013679 -0.00162145

TotalForce_(N) 3 4 double
-0.0210725 0.0046406 0.00187302
-0.0176317 0.0040542 0.00112358
-0.00561957 0.000975878 -0.000714678
-0.077191 0.0159314 -0.000953807

