# vtk DataFile Version 4.2
vtk output
ASCII
DATASET UNSTRUCTURED_GRID

POINTS 1 double
0.00286956 0.00572612 0.0049197

CELLS 1 2
1 0

CELL_TYPES 1
1

POINT_DATA 1
FIELD FieldData 10

ContactID_(#) 1 1 int
471

FaceID_(#) 1 1 int
11860

Friction_(-) 1 1 double
0.2

NormalStiffness_(N/m) 1 1 double
2000

TangentialStiffness_(N/m) 1 1 double
1000

NormalOverlap_(m) 1 1 double
2.66397e-06

TangentialOverlap_(m) 3 1 double
-2.17607e-07 -1.02781e-06 6.84581e-08

NormalForce_(N) 3 1 double
-0.00519798 0.00115834 0.000161782

TangentialForce_(N) 3 1 double
0.000217607 0.00102781 -6.84581e-05

TotalForce_(N) 3 1 double
-0.00498037 0.00218616 9.33242e-05

