# vtk DataFile Version 4.2
vtk output
ASCII
DATASET UNSTRUCTURED_GRID

POINTS 44592 double
0.00318607 0.0077716 0.00688144
0.00284395 0.00806292 0.00685422
0.00222746 0.00762692 0.00679836
0.00297337 0.00720265 0.0068592
0.00284395 0.00806292 0.00685422
0.00286786 0.00772538 0.00716607
0.00297337 0.00720265 0.0068592
0.00292112 0.0077298 0.0065441
0.00286786 0.00772538 0.00716607
0.00318607 0.0077716 0.00688144
0.00292112 0.0077298 0.0065441
0.00222746 0.00762692 0.00679836
-0.00423529 0.00721416 0.00392116
-0.00359683 0.00705215 0.00397463
-0.00326066 0.00736133 0.00400557
-0.00371826 0.00785901 0.00396994
-0.00359683 0.00705215 0.00397463
-0.00367178 0.00730178 0.00440484
-0.00371826 0.00785901 0.00396994
-0.00360847 0.00730701 0.00366459
-0.00367178 0.00730178 0.00440484
-0.00423529 0.00721416 0.00392116
-0.00360847 0.00730701 0.00366459
-0.00326066 0.00736133 0.00400557
-0.00215105 0.00981692 0.00531907
-0.00186472 0.0102492 0.00534664
-0.000904707 0.0100052 0.00542703
-0.0017303 0.00935659 0.0053518
-0.00186472 0.0102492 0.00534664
-0.00177739 0.00987132 0.00499759
-0.0017303 0.00935659 0.0053518
-0.00182926 0.00986702 0.00560406
-0.00177739 0.00987132 0.00499759
-0.00215105 0.00981692 0.00531907
-0.00182926 0.00986702 0.00560406
-0.000904707 0.0100052 0.00542703
-4.74515e-05 0.00702781 0.00714631
0.000351511 0.00618984 0.00717453
0.000655255 0.00713386 0.00720724
0.000172372 0.00738067 0.00716764
0.000351511 0.00618984 0.00717453
0.000253835 0.00707093 0.00676734
0.000172372 0.00738067 0.00716764
0.000180724 0.00706488 0.00762097
0.000253835 0.00707093 0.00676734
-4.74515e-05 0.00702781 0.00714631
0.000180724 0.00706488 0.00762097
0.000655255 0.00713386 0.00720724
0.000324705 0.00774007 0.00749808
0.000574332 0.00819403 0.00752271
0.00100032 0.00784203 0.00755671
0.000690847 0.00741957 0.00752718
0.000574332 0.00819403 0.00752271
0.000599485 0.00778399 0.00794609
0.000690847 0.00741957 0.00752718
0.000670244 0.00778986 0.00712048
0.000599485 0.00778399 0.00794609
0.000324705 0.00774007 0.00749808
0.000670244 0.00778986 0.00712048
0.00100032 0.00784203 0.00755671
0.00313802 0.00820028 0.00708225
0.00280925 0.00782568 0.00705145
0.00224078 0.00806485 0.00700449
0.00270843 0.00849593 0.00704758
0.00280925 0.00782568 0.00705145
0.00278659 0.00814553 0.00675594
0.00270843 0.00849593 0.00704758
0.00273642 0.00814137 0.00734207
0.00278659 0.00814553 0.00675594
0.00313802 0.00820028 0.00708225
0.00273642 0.00814137 0.00734207
0.00224078 0.00806485 0.00700449
-0.000579692 0.00948733 0.00784973
-0.000858673 0.00920904 0.00782384
-0.00162229 0.00932982 0.00775923
-0.000920019 0.00961618 0.00782147
-0.000858673 0.00920904 0.00782384
-0.000874008 0.00944154 0.00759585
-0.000920019 0.00961618 0.00782147
-0.000908776 0.00943865 0.00800091
-0.000874008 0.00944154 0.00759585
-0.000579692 0.00948733 0.00784973
-0.000908776 0.00943865 0.00800091
-0.00162229 0.00932982 0.00775923
0.000425366 0.0079502 0.00734358
0.000173237 0.00832975 0.00732469
-1.78886e-05 0.00788327 0.00730514
0.000285835 0.00758129 0.00732901
0.000173237 0.00832975 0.00732469
0.00021342 0.00791966 0.0075752
0.000285835 0.00758129 0.00732901
0.000254541 0.00792304 0.00709496
0.00021342 0.00791966 0.0075752
0.000425366 0.0079502 0.00734358
0.000254541 0.00792304 0.00709496
-1.78886e-05 0.00788327 0.00730514
-0.00325047 0.00688541 0.00405746
-0.00362585 0.00705042 0.00402653
-0.00440652 0.00671084 0.00395735
-0.00352322 0.00636854 0.00403048
-0.00362585 0.00705042 0.00402653
-0.00356373 0.00683609 0.00368289
-0.00352322 0.00636854 0.00403048
-0.00362579 0.00683096 0.00440864
-0.00356373 0.00683609 0.00368289
-0.00325047 0.00688541 0.00405746
-0.00362579 0.00683096 0.00440864
-0.00440652 0.00671084 0.00395735
-0.000298757 0.00534291 0.00792565
-0.00102738 0.0060188 0.00786801
-0.00127559 0.00519561 0.00784091
-0.000867085 0.00495197 0.00787418
-0.00102738 0.0060188 0.00786801
-0.000934177 0.00524861 0.0081322
-0.000867085 0.00495197 0.00787418
-0.000886263 0.00525256 0.0075727
-0.000934177 0.00524861 0.0081322
-0.000298757 0.00534291 0.00792565
-0.000886263 0.00525256 0.0075727
-0.00127559 0.00519561 0.00784091
0.00394106 0.00946725 0.00358496
0.00348741 0.00970003 0.00354783
0.00293524 0.00931538 0.00349792
0.00355901 0.00922418 0.00355059
0.00348741 0.00970003 0.00354783
0.00355122 0.00940706 0.00332162
0.00355901 0.00922418 0.00355059
0.00351376 0.00940395 0.00375982
0.00355122 0.00940706 0.00332162
0.00394106 0.00946725 0.00358496
0.00351376 0.00940395 0.00375982
0.00293524 0.00931538 0.00349792
-0.000702639 0.0116132 0.00344741
-0.00108324 0.0119643 0.00341737
-0.00145599 0.0114993 0.00338222
-0.000978933 0.0112716 0.00342138
-0.00108324 0.0119643 0.00341737
-0.00104098 0.0115633 0.00362927
-0.000978933 0.0112716 0.00342138
-0.00100534 0.0115662 0.00321213
-0.00104098 0.0115633 0.00362927
-0.000702639 0.0116132 0.00344741
-0.00100534 0.0115662 0.00321213
-0.00145599 0.0114993 0.00338222
0.00241629 0.00791633 0.00804294
0.00217938 0.00730385 0.0080183
0.00142929 0.00776734 0.00795734
0.00205239 0.00814764 0.00801341
0.00217938 0.00730385 0.0080183
0.0020654 0.00786534 0.00835482
0.00205239 0.00814764 0.00801341
0.00212324 0.00787014 0.00767976
0.0020654 0.00786534 0.00835482
0.00241629 0.00791633 0.00804294
0.00212324 0.00787014 0.00767976
0.00142929 0.00776734 0.00795734
-0.000137112 0.00514045 0.00629199
0.000173501 0.00489642 0.00631685
0.000401451 0.00522165 0.00633868
7.55068e-05 0.00554857 0.00631309
0.000173501 0.00489642 0.00631685
0.00016877 0.00518398 0.0058714
7.55068e-05 0.00554857 0.00631309
0.000101814 0.00517844 0.00665326
0.00016877 0.00518398 0.0058714
-0.000137112 0.00514045 0.00629199
0.000101814 0.00517844 0.00665326
0.000401451 0.00522165 0.00633868
-0.000991845 0.0116904 0.00367973
-0.000740884 0.0114075 0.00369918
-0.000632534 0.0117447 0.00371083
-0.0008229 0.0119521 0.00369602
-0.000740884 0.0114075 0.00369918
-0.0007613 0.0117234 0.00338342
-0.0008229 0.0119521 0.00369602
-0.000836039 0.0117172 0.00425816
-0.0007613 0.0117234 0.00338342
-0.000991845 0.0116904 0.00367973
-0.000836039 0.0117172 0.00425816
-0.000632534 0.0117447 0.00371083
-0.00344456 0.00729706 0.00358659
-0.003834 0.00695871 0.00355089
-0.0042299 0.00717847 0.00351858
-0.00392797 0.00758307 0.00354727
-0.003834 0.00695871 0.00355089
-0.00389406 0.00723048 0.00377058
-0.00392797 0.00758307 0.00354727
-0.00385339 0.00723384 0.00329503
-0.00389406 0.00723048 0.00377058
-0.00344456 0.00729706 0.00358659
-0.00385339 0.00723384 0.00329503
-0.0042299 0.00717847 0.00351858
-0.000653933 0.0101747 0.00536181
-0.000144171 0.0107783 0.00540969
0.000175964 0.0103001 0.00543368
-2.15586e-05 0.0099641 0.0054144
-0.000144171 0.0107783 0.00540969
-9.65266e-05 0.0102609 0.00576225
-2.15586e-05 0.0099641 0.0054144
-2.94356e-05 0.0102665 0.00497777
-9.65266e-05 0.0102609 0.00576225
-0.000653933 0.0101747 0.00536181
-2.94356e-05 0.0102665 0.00497777
0.000175964 0.0103001 0.00543368
0.00261608 0.00673405 0.003387
0.00209192 0.00720995 0.00334555
0.00186893 0.00662134 0.00332234
0.00222062 0.00635371 0.00335052
0.00209192 0.00720995 0.00334555
0.00220344 0.00666976 0.00299839
0.00222062 0.00635371 0.00335052
0.00215722 0.00666594 0.003539
0.00220344 0.00666976 0.00299839
0.00261608 0.00673405 0.003387
0.00215722 0.00666594 0.003539
0.00186893 0.00662134 0.00332234
0.0007329 0.0103684 0.00557171
0.000295076 0.0108111 0.00553739
0.00015077 0.0102804 0.00552127
0.000416335 0.0100059 0.00554205
0.000295076 0.0108111 0.00553739
0.000343894 0.0103114 0.00584538
0.000416335 0.0100059 0.00554205
0.00043729 0.0103191 0.004754
0.000343894 0.0103114 0.00584538
0.0007329 0.0103684 0.00557171
0.00043729 0.0103191 0.004754
0.00015077 0.0102804 0.00552127
-0.0019698 0.00974191 0.00570994
-0.00158963 0.0102073 0.00574577
-0.00100239 0.00988807 0.00579375
-0.00145596 0.00931964 0.0057509
-0.00158963 0.0102073 0.00574577
-0.00151208 0.00980988 0.00554356
-0.00145596 0.00931964 0.0057509
-0.00155657 0.00980618 0.00606385
-0.00151208 0.00980988 0.00554356
-0.0019698 0.00974191 0.00570994
-0.00155657 0.00980618 0.00606385
-0.00100239 0.00988807 0.00579375
-0.00076116 0.0114506 0.00387134
-0.00107407 0.0118752 0.0038476
-0.00126651 0.0113742 0.00382761
-0.000950026 0.0110515 0.00385237
-0.00107407 0.0118752 0.0038476
-0.000987784 0.0114152 0.00365366
-0.000950026 0.0110515 0.00385237
-0.00102803 0.0114119 0.00412464
-0.000987784 0.0114152 0.00365366
-0.00076116 0.0114506 0.00387134
-0.00102803 0.0114119 0.00412464
-0.00126651 0.0113742 0.00382761
0.0023283 0.00667766 0.00378649
0.00188105 0.00708747 0.00375115
0.00159799 0.00656748 0.0037233
0.00201616 0.00618858 0.00375637
0.00188105 0.00708747 0.00375115
0.00192409 0.00661853 0.00407111
0.00201616 0.00618858 0.00375637
0.00196769 0.00662212 0.00356092
0.00192409 0.00661853 0.00407111
0.0023283 0.00667766 0.00378649
0.00196769 0.00662212 0.00356092
0.00159799 0.00656748 0.0037233
0.000162174 0.00676593 0.00755084
0.00064071 0.00630594 0.00758858
0.000917712 0.00687993 0.00761638
0.000501151 0.00723386 0.0075832
0.00064071 0.00630594 0.00758858
0.000524398 0.00682316 0.00802946
0.000501151 0.00723386 0.0075832
0.000597985 0.00682929 0.00717087
0.000524398 0.00682316 0.00802946
0.000162174 0.00676593 0.00755084
0.000597985 0.00682929 0.00717087
0.000917712 0.00687993 0.00761638
-0.000632542 0.00829221 0.00516795
-0.00084167 0.00852283 0.00515171
-0.00105081 0.00822907 0.00513174
-0.000753667 0.00793801 0.00515508
-0.00084167 0.00852283 0.00515171
-0.000833771 0.00826393 0.00551191
-0.000753667 0.00793801 0.00515508
-0.000769228 0.00826926 0.00475721
-0.000833771 0.00826393 0.00551191
-0.000632542 0.00829221 0.00516795
-0.000769228 0.00826926 0.00475721
-0.00105081 0.00822907 0.00513174
-0.000972536 0.00911229 0.00522926
-0.00069531 0.00977505 0.00525766
-0.000116727 0.00924154 0.00530334
-0.00055812 0.00886331 0.00526292
-0.00069531 0.00977505 0.00525766
-0.000574952 0.00917036 0.0049217
-0.00055812 0.00886331 0.00526292
-0.000641551 0.00916484 0.00570108
[...]
CELL_DATA 11148
FIELD FieldData 5

SpringID_(#) 1 11148 int
11148
11149
11150
11151
11152
11153
11154
11155
11156
11157
11158
11159
11160
11161
11162
11163
11164
11165
11166
11167
11168
11169
11170
11171
11172
11173
11174
11175
11176
11177
11178
11179
11180
11181
11182
11183
11184
11185
11186
11187
11188
11189
11190
11191
11192
11193
11194
11195
11196
11197
11198
11199
11200
11201
11202
11203
11204
11205
11206
11207
11208
11209
11210
11211
11212
11213
11214
11215
11216
11217
11218
11219
11220
11221
11222
11223
11224
11225
11226
11227
11228
11229
11230
11231
11232
11233
11234
11235
11236
11237
11238
11239
11240
11241
11242
11243
11244
11245
11246
11247
11248
11249
11250
11251
11252
11253
11254
11255
11256
11257
11258
11259
11260
11261
11262
11263
11264
11265
11266
11267
11268
11269
11270
11271
11272
11273
11274
11275
11276
11277
11278
11279
11280
11281
11282
11283
11284
11285
11286
11287
11288
11289
11290
11291
11292
11293
11294
11295
11296
11297
11298
11299
11300
11301
11302
11303
11304
11305
11306
11307
11308
11309
11310
11311
11312
11313
11314
11315
11316
11317
11318
11319
11320
11321
11322
11323
11324
11325
11326
11327
11328
11329
11330
11331
11332
11333
11334
11335
11336
11337
11338
11339
11340
11341
11342
11343
11344
11345
11346
11347
11348
11349
11350
11351
11352
11353
11354
11355
11356
11357
11358
11359
11360
11361
11362
11363
11364
11365
11366
11367
11368
11369
11370
11371
11372
11373
11374
11375
11376
11377
11378
11379
11380
11381
11382
11383
11384
11385
11386
11387
11388
11389
11390
11391
11392
11393
11394
11395
11396
11397
11398
11399
11400
11401
11402
11403
11404
11405
11406
11407
11408
11409
11410
11411
11412
11413
11414
11415
11416
11417
11418
11419
11420
11421
11422
11423
11424
11425
11426
11427
11428
11429
11430
11431
11432
11433
11434
11435
11436
11437
11438
11439
11440
11441
11442
11443
11444
11445
11446
11447
11448
11449
11450
11451
11452
11453
11454
11455
11456
11457
11458
11459
11460
11461
11462
11463
11464
11465
11466
11467
11468
11469
11470
11471
11472
11473
11474
11475
11476
11477
11478
11479
11480
11481
11482
11483
11484
11485
11486
11487
11488
11489
11490
11491
11492
11493
11494
11495
11496
11497
11498
11499
11500
11501
11502
11503
11504
11505
11506
11507
11508
11509
11510
11511
11512
11513
11514
11515
11516
11517
11518
11519
11520
11521
11522
11523
11524
11525
11526
11527
11528
11529
11530
11531
11532
11533
11534
11535
11536
11537
11538
11539
11540
11541
11542
11543
11544
11545
11546
11547
11548
11549
11550
11551
11552
11553
11554
11555
11556
11557
11558
11559
11560
11561
11562
11563
11564
11565
11566
11567
11568
11569
11570
11571
11572
11573
11574
11575
11576
11577
11578
11579
11580
11581
11582
11583
11584
11585
11586
11587
11588
11589
11590
11591
11592
11593
11594
11595
11596
11597
11598
11599
11600
11601
11602
11603
11604
11605
11606
11607
11608
11609
11610
11611
11612
11613
11614
11615
11616
11617
11618
11619
11620
11621
11622
11623
11624
11625
11626
11627
11628
11629
11630
11631
11632
11633
11634
11635
11636
11637
11638
11639
11640
11641
11642
11643
11644
11645
11646
11647
11648
11649
11650
11651
11652
11653
11654
11655
11656
11657
11658
11659
11660
11661
11662
11663
11664
11665
11666
11667
11668
11669
11670
11671
11672
11673
11674
11675
11676
11677
11678
11679
11680
11681
11682
11683
11684
11685
11686
11687
11688
11689
11690
11691
11692
11693
11694
11695
11696
11697
11698
11699
11700
11701
11702
11703
11704
11705
11706
11707
11708
11709
11710
11711
11712
11713
11714
11715
11716
11717
11718
11719
11720
11721
11722
11723
11724
11725
11726
11727
11728
11729
11730
11731
11732
11733
11734
11735
11736
11737
11738
11739
11740
11741
11742
11743
11744
11745
11746
11747
11748
11749
11750
11751
11752
11753
11754
11755
11756
11757
11758
11759
11760
11761
11762
11763
11764
11765
11766
11767
11768
11769
11770
11771
11772
11773
11774
11775
11776
11777
11778
11779
11780
11781
11782
11783
11784
11785
11786
11787
11788
11789
11790
11791
11792
11793
11794
11795
11796
11797
11798
11799
11800
11801
11802
11803
11804
11805
11806
11807
11808
11809
11810
11811
11812
11813
11814
11815
11816
11817
11818
11819
11820
11821
11822
11823
11824
11825
11826
11827
11828
11829
11830
11831
11832
11833
11834
11835
11836
11837
11838
11839
11840
11841
11842
11843
11844
11845
11846
11847
11848
11849
11850
11851
11852
11853
11854
11855
11856
11857
11858
11859
11860
11861
11862
11863
11864
11865
11866
11867
11868
11869
11870
11871
11872
11873
11874
11875
11876
11877
11878
11879
11880
11881
11882
11883
11884
11885
11886
11887
11888
11889
11890
11891
11892
11893
11894
11895
11896
11897
11898
11899
11900
11901
11902
11903
11904
11905
11906
11907
11908
11909
11910
11911
11912
11913
11914
11915
11916
11917
11918
11919
11920
11921
11922
11923
11924
11925
11926
11927
11928
11929
11930
11931
11932
11933
11934
11935
11936
11937
11938
11939
11940
11941
11942
11943
11944
11945
11946
11947
11948
11949
11950
11951
11952
11953
11954
11955
11956
11957
11958
11959
11960
11961
11962
11963
11964
11965
11966
11967
11968
11969
11970
11971
11972
11973
11974
11975
11976
11977
11978
11979
11980
11981
11982
11983
11984
11985
11986
11987
11988
11989
11990
11991
11992
11993
11994
11995
11996
11997
11998
11999
12000
12001
12002
12003
12004
12005
12006
12007
12008
12009
12010
12011
12012
12013
12014
12015
12016
12017
12018
12019
12020
12021
12022
12023
12024
12025
12026
12027
12028
12029
12030
12031
12032
12033
12034
12035
12036
12037
12038
12039
12040
12041
12042
12043
12044
12045
12046
12047
12048
12049
12050
12051
12052
12053
12054
12055
12056
12057
12058
12059
12060
12061
12062
12063
12064
12065
12066
12067
12068
12069
12070
12071
12072
12073
12074
12075
12076
12077
12078
12079
12080
12081
12082
12083
12084
12085
12086
12087
12088
12089
12090
12091
12092
12093
12094
12095
12096
12097
12098
12099
12100
12101
12102
12103
12104
12105
12106
12107
12108
12109
12110
12111
12112
12113
12114
12115
12116
12117
12118
12119
12120
12121
12122
12123
12124
12125
12126
12127
12128
12129
12130
12131
12132
12133
12134
12135
12136
12137
12138
12139
12140
12141
12142
12143
12144
12145
12146
12147
12148
12149
12150
12151
12152
12153
12154
12155
12156
12157
12158
12159
12160
12161
12162
12163
12164
12165
12166
12167
12168
12169
12170
12171
12172
12173
12174
12175
12176
12177
12178
12179
12180
12181
12182
12183
12184
12185
12186
12187
12188
12189
12190
12191
12192
12193
12194
12195
12196
12197
12198
12199
12200
12201
12202
12203
12204
12205
12206
12207
12208
12209
12210
12211
12212
12213
12214
12215
12216
12217
12218
12219
12220
12221
12222
12223
12224
12225
12226
12227
12228
12229
12230
12231
12232
12233
12234
12235
12236
12237
12238
12239
12240
12241
12242
12243
12244
12245
12246
12247
12248
12249
12250
12251
12252
12253
12254
12255
12256
12257
12258
12259
12260
12261
12262
12263
12264
12265
12266
12267
12268
12269
12270
12271
12272
12273
12274
12275
12276
12277
12278
12279
12280
12281
12282
12283
12284
12285
12286
12287
12288
12289
12290
12291
12292
12293
12294
12295
12296
12297
12298
12299
12300
12301
12302
12303
12304
12305
12306
12307
12308
12309
12310
12311
12312
12313
12314
12315
12316
12317
12318
12319
12320
12321
12322
12323
12324
12325
12326
12327
12328
12329
12330
12331
12332
12333
12334
12335
12336
12337
12338
12339
12340
12341
12342
12343
12344
12345
12346
12347
12348
12349
12350
12351
12352
12353
12354
12355
12356
12357
12358
12359
12360
12361
12362
12363
12364
12365
12366
12367
12368
12369
12370
12371
12372
12373
12374
12375
12376
12377
12378
12379
12380
12381
12382
12383
12384
12385
12386
12387
12388
12389
12390
12391
12392
12393
12394
12395
12396
12397
12398
12399
12400
12401
12402
12403
12404
12405
12406
12407
12408
12409
12410
12411
12412
12413
12414
12415
12416
12417
12418
12419
12420
12421
12422
12423
12424
12425
12426
12427
12428
12429
12430
12431
12432
12433
12434
12435
12436
12437
12438
12439
12440
12441
12442
12443
12444
12445
12446
12447
12448
12449
12450
12451
12452
12453
12454
12455
12456
12457
12458
12459
12460
12461
12462
12463
12464
12465
12466
12467
12468
12469
12470
12471
12472
12473
12474
12475
12476
12477
12478
12479
12480
12481
12482
12483
12484
12485
12486
12487
12488
12489
12490
12491
12492
12493
12494
12495
12496
12497
12498
12499
12500
12501
12502
12503
12504
12505
12506
12507
12508
12509
12510
12511
12512
12513
12514
12515
12516
12517
12518
12519
12520
12521
12522
12523
12524
12525
12526
12527
12528
12529
12530
12531
12532
12533
12534
12535
12536
12537
12538
12539
12540
12541
12542
12543
12544
12545
12546
12547
12548
12549
12550
12551
12552
12553
12554
12555
12556
12557
12558
12559
12560
12561
12562
12563
12564
12565
12566
12567
12568
12569
12570
12571
12572
12573
12574
12575
12576
12577
12578
12579
12580
12581
12582
12583
12584
12585
12586
12587
12588
12589
12590
12591
12592
12593
12594
12595
12596
12597
12598
12599
12600
12601
12602
12603
12604
12605
12606
12607
12608
12609
12610
12611
12612
12613
12614
12615
12616
12617
12618
12619
12620
12621
12622
12623
12624
12625
12626
12627
12628
12629
12630
12631
12632
12633
12634
12635
12636
12637
12638
12639
12640
12641
12642
12643
12644
12645
12646
12647
12648
12649
12650
12651
12652
12653
12654
12655
12656
12657
12658
12659
12660
12661
12662
12663
12664
12665
12666
12667
12668
12669
12670
12671
12672
12673
12674
12675
12676
12677
12678
12679
12680
12681
12682
12683
12684
12685
12686
12687
12688
12689
12690
12691
12692
12693
12694
12695
12696
12697
12698
12699
12700
12701
12702
12703
12704
12705
12706
12707
12708
12709
12710
12711
12712
12713
12714
12715
12716
12717
12718
12719
12720
12721
12722
12723
12724
12725
12726
12727
12728
12729
12730
12731
12732
12733
12734
12735
12736
12737
12738
12739
12740
12741
12742
12743
12744
12745
12746
12747
12748
12749
12750
12751
12752
12753
12754
12755
12756
12757
12758
12759
12760
12761
12762
12763
12764
12765
12766
12767
12768
12769
12770
12771
12772
12773
12774
12775
12776
12777
12778
12779
12780
12781
12782
12783
12784
12785
12786
12787
12788
12789
12790
12791
12792
12793
12794
12795
12796
12797
12798
12799
12800
12801
12802
12803
12804
12805
12806
12807
12808
12809
12810
12811
12812
12813
12814
12815
12816
12817
12818
12819
12820
12821
12822
12823
12824
12825
12826
12827
12828
12829
12830
12831
12832
12833
12834
12835
12836
12837
12838
12839
12840
12841
12842
12843
12844
12845
12846
12847
12848
12849
12850
12851
12852
12853
12854
12855
12856
12857
12858
12859
12860
12861
12862
12863
12864
12865
12866
12867
12868
12869
12870
12871
12872
12873
12874
12875
12876
12877
12878
12879
12880
12881
12882
12883
12884
12885
12886
12887
12888
12889
12890
12891
12892
12893
12894
12895
12896
12897
12898
12899
12900
12901
12902
12903
12904
12905
12906
12907
12908
12909
12910
12911
12912
12913
12914
12915
12916
12917
12918
12919
12920
12921
12922
12923
12924
12925
12926
12927
12928
12929
12930
12931
12932
12933
12934
12935
12936
12937
12938
12939
12940
12941
12942
12943
12944
12945
12946
12947
12948
12949
12950
12951
12952
12953
12954
12955
12956
12957
12958
12959
12960
12961
12962
12963
12964
12965
12966
12967
12968
12969
12970
12971
12972
12973
12974
12975
12976
12977
12978
12979
12980
12981
12982
12983
12984
12985
12986
12987
12988
12989
12990
12991
12992
12993
12994
12995
12996
12997
12998
12999
13000
13001
13002
13003
13004
13005
13006
13007
13008
13009
13010
13011
13012
13013
13014
13015
13016
13017
13018
13019
13020
13021
13022
13023
13024
13025
13026
13027
13028
13029
13030
13031
13032
13033
13034
13035
13036
13037
13038
13039
13040
13041
13042
13043
13044
13045
13046
13047
13048
13049
13050
13051
13052
13053
13054
13055
13056
13057
13058
13059
13060
13061
13062
13063
13064
13065
13066
13067
13068
13069
13070
13071
13072
13073
13074
13075
13076
13077
13078
13079
13080
13081
13082
13083
13084
13085
13086
13087
13088
13089
13090
13091
13092
13093
13094
13095
13096
13097
13098
13099
13100
13101
13102
13103
13104
13105
13106
13107
13108
13109
13110
13111
13112
13113
13114
13115
13116
13117
13118
13119
13120
13121
13122
13123
13124
13125
13126
13127
13128
13129
13130
13131
13132
13133
13134
13135
13136
13137
13138
13139
13140
13141
13142
13143
13144
13145
13146
13147
13148
13149
13150
13151
13152
13153
13154
13155
13156
13157
13158
13159
13160
13161
13162
13163
13164
13165
13166
13167
13168
13169
13170
13171
13172
13173
13174
13175
13176
13177
13178
13179
13180
13181
13182
13183
13184
13185
13186
13187
13188
13189
13190
13191
13192
13193
13194
13195
13196
13197
13198
13199
13200
13201
13202
13203
13204
13205
13206
13207
13208
13209
13210
13211
13212
13213
13214
13215
13216
13217
13218
13219
13220
13221
13222
13223
13224
13225
13226
13227
13228
13229
13230
13231
13232
13233
13234
13235
13236
13237
13238
13239
13240
13241
13242
13243
13244
13245
13246
13247
13248
13249
13250
13251
13252
13253
13254
13255
13256
13257
13258
13259
13260
13261
13262
13263
13264
13265
13266
13267
13268
13269
13270
13271
13272
13273
13274
13275
13276
13277
13278
13279
13280
13281
13282
13283
13284
13285
13286
13287
13288
13289
13290
13291
13292
13293
13294
13295
13296
13297
13298
13299
13300
13301
13302
13303
13304
13305
13306
13307
13308
13309
13310
13311
13312
13313
13314
13315
13316
13317
13318
13319
13320
13321
13322
13323
13324
13325
13326
13327
13328
13329
13330
13331
13332
13333
13334
13335
13336
13337
13338
13339
13340
13341
13342
13343
13344
13345
13346
13347
13348
13349
13350
13351
13352
13353
13354
13355
13356
13357
13358
13359
13360
13361
13362
13363
13364
13365
13366
13367
13368
13369
13370
13371
13372
13373
13374
13375
13376
13377
13378
13379
13380
13381
13382
13383
13384
13385
13386
13387
13388
13389
13390
13391
13392
13393
13394
13395
13396
13397
13398
13399
13400
13401
13402
13403
13404
13405
13406
13407
13408
13409
13410
13411
13412
13413
13414
13415
13416
13417
13418
13419
13420
13421
13422
13423
13424
13425
13426
13427
13428
13429
13430
13431
13432
13433
13434
13435
13436
13437
13438
13439
13440
13441
13442
13443
13444
13445
13446
13447
13448
13449
13450
13451
13452
13453
13454
13455
13456
13457
13458
13459
13460
13461
13462
13463
13464
13465
13466
13467
13468
13469
13470
13471
13472
13473
13474
13475
13476
13477
13478
13479
13480
13481
13482
13483
13484
13485
13486
13487
13488
13489
13490
13491
13492
13493
13494
13495
13496
13497
13498
13499
13500
13501
13502
13503
13504
13505
13506
13507
13508
13509
13510
13511
13512
13513
13514
13515
13516
13517
13518
13519
13520
13521
13522
13523
13524
13525
13526
13527
13528
13529
13530
13531
13532
13533
13534
13535
13536
13537
13538
13539
13540
13541
13542
13543
13544
13545
13546
13547
13548
13549
13550
13551
13552
13553
13554
13555
13556
13557
13558
13559
13560
13561
13562
13563
13564
13565
13566
13567
13568
13569
13570
13571
13572
13573
13574
13575
13576
13577
13578
13579
13580
13581
13582
13583
13584
13585
13586
13587
13588
13589
13590
13591
13592
13593
13594
13595
13596
13597
13598
13599
13600
13601
13602
13603
13604
13605
13606
13607
13608
13609
13610
13611
13612
13613
13614
13615
13616
13617
13618
13619
13620
13621
13622
13623
13624
13625
13626
13627
13628
13629
13630
13631
13632
13633
13634
13635
13636
13637
13638
13639
13640
13641
13642
13643
13644
13645
13646
13647
13648
13649
13650
13651
13652
13653
13654
13655
13656
13657
13658
13659
13660
13661
13662
13663
13664
13665
13666
13667
13668
13669
13670
13671
13672
13673
13674
13675
13676
13677
13678
13679
13680
13681
13682
13683
13684
13685
13686
13687
13688
13689
13690
13691
13692
13693
13694
13695
13696
13697
13698
13699
13700
13701
13702
13703
13704
13705
13706
13707
13708
13709
13710
13711
13712
13713
13714
13715
13716
13717
13718
13719
13720
13721
13722
13723
13724
13725
13726
13727
13728
13729
13730
13731
13732
13733
13734
13735
13736
13737
13738
13739
13740
13741
13742
13743
13744
13745
13746
13747
13748
13749
13750
13751
13752
13753
13754
13755
13756
13757
13758
13759
13760
13761
13762
13763
13764
13765
13766
13767
13768
13769
13770
13771
13772
13773
13774
13775
13776
13777
13778
13779
13780
13781
13782
13783
13784
13785
13786
13787
13788
13789
13790
13791
13792
13793
13794
13795
13796
13797
13798
13799
13800
13801
13802
13803
13804
13805
13806
13807
13808
13809
13810
13811
13812
13813
13814
13815
13816
13817
13818
13819
13820
13821
13822
13823
13824
13825
13826
13827
13828
13829
13830
13831
13832
13833
13834
13835
13836
13837
13838
13839
13840
13841
13842
13843
13844
13845
13846
13847
13848
13849
13850
13851
13852
13853
13854
13855
13856
13857
13858
13859
13860
13861
13862
13863
13864
13865
13866
13867
13868
13869
13870
13871
13872
13873
13874
13875
13876
13877
13878
13879
13880
13881
13882
13883
13884
13885
13886
13887
13888
13889
13890
13891
13892
13893
13894
13895
13896
13897
13898
13899
13900
13901
13902
13903
13904
13905
13906
13907
13908
13909
13910
13911
13912
13913
13914
13915
13916
13917
13918
13919
13920
13921
13922
13923
13924
13925
13926
13927
13928
13929
13930
13931
13932
13933
13934
13935
13936
13937
13938
13939
13940
13941
13942
13943
13944
13945
13946
13947
13948
13949
13950
13951
13952
13953
13954
13955
13956
13957
13958
13959
13960
13961
13962
13963
13964
13965
13966
13967
13968
13969
13970
13971
13972
13973
13974
13975
13976
13977
13978
13979
13980
13981
13982
13983
13984
13985
13986
13987
13988
13989
13990
13991
13992
13993
13994
13995
13996
13997
13998
13999
14000
14001
14002
14003
14004
14005
14006
14007
14008
14009
14010
14011
14012
14013
14014
14015
14016
14017
14018
14019
14020
14021
14022
14023
14024
14025
14026
14027
14028
14029
14030
14031
14032
14033
14034
14035
14036
14037
14038
14039
14040
14041
14042
14043
14044
14045
14046
14047
14048
14049
14050
14051
14052
14053
14054
14055
14056
14057
14058
14059
14060
14061
14062
14063
14064
14065
14066
14067
14068
14069
14070
14071
14072
14073
14074
14075
14076
14077
14078
14079
14080
14081
14082
14083
14084
14085
14086
14087
14088
14089
14090
14091
14092
14093
14094
14095
14096
14097
14098
14099
14100
14101
14102
14103
14104
14105
14106
14107
14108
14109
14110
14111
14112
14113
14114
14115
14116
14117
14118
14119
14120
14121
14122
14123
14124
14125
14126
14127
14128
14129
14130
14131
14132
14133
14134
14135
14136
14137
14138
14139
14140
14141
14142
14143
14144
14145
14146
14147
14148
14149
14150
14151
14152
14153
14154
14155
14156
14157
14158
14159
14160
14161
14162
14163
14164
14165
14166
14167
14168
14169
14170
14171
14172
14173
14174
14175
14176
14177
14178
14179
14180
14181
14182
14183
14184
14185
14186
14187
14188
14189
14190
14191
14192
14193
14194
14195
14196
14197
14198
14199
14200
14201
14202
14203
14204
14205
14206
14207
14208
14209
14210
14211
14212
14213
14214
14215
14216
14217
14218
14219
14220
14221
14222
14223
14224
14225
14226
14227
14228
14229
14230
14231
14232
14233
14234
14235
14236
14237
14238
14239
14240
14241
14242
14243
14244
14245
14246
14247
14248
14249
14250
14251
14252
14253
14254
14255
14256
14257
14258
14259
14260
14261
14262
14263
14264
14265
14266
14267
14268
14269
14270
14271
14272
14273
14274
14275
14276
14277
14278
14279
14280
14281
14282
14283
14284
14285
14286
14287
14288
14289
14290
14291
14292
14293
14294
14295
14296
14297
14298
14299
14300
14301
14302
14303
14304
14305
14306
14307
14308
14309
14310
14311
14312
14313
14314
14315
14316
14317
14318
14319
14320
14321
14322
14323
14324
14325
14326
14327
14328
14329
14330
14331
14332
14333
14334
14335
14336
14337
14338
14339
14340
14341
14342
14343
14344
14345
14346
14347
14348
14349
14350
14351
14352
14353
14354
14355
14356
14357
14358
14359
14360
14361
14362
14363
14364
14365
14366
14367
14368
14369
14370
14371
14372
14373
14374
14375
14376
14377
14378
14379
14380
14381
14382
14383
14384
14385
14386
14387
14388
14389
14390
14391
14392
14393
14394
14395
14396
14397
14398
14399
14400
14401
14402
14403
14404
14405
14406
14407
14408
14409
14410
14411
14412
14413
14414
14415
14416
14417
14418
14419
14420
14421
14422
14423
14424
14425
14426
14427
14428
14429
14430
14431
14432
14433
14434
14435
14436
14437
14438
14439
14440
14441
14442
14443
14444
14445
14446
14447
14448
14449
14450
14451
14452
14453
14454
14455
14456
14457
14458
14459
14460
14461
14462
14463
14464
14465
14466
14467
14468
14469
14470