# vtk DataFile Version 4.2
vtk output
ASCII
DATASET UNSTRUCTURED_GRID

POINTS 58 double
0.0143346 0.00901873 0.00401344
0.0143319 0.00598359 0.00812594
0.0143326 0.00735507 0.00692843
0.0143282 0.00161975 0.00399615
0.014331 0.00744946 0.00401631
0.0143332 0.0086608 0.00562963
0.0143283 0.00305414 0.00317385
0.0143301 0.00159063 0.00238914
0.0143351 0.00865581 0.00244618
0.0143281 0.00161902 0.0056353
0.014331 0.00704171 0.00559571
0.0143362 0.00879889 0.00733649
0.0143316 0.00712929 0.00245204
0.0143304 0.00154943 0.00729857
0.0143293 0.00447655 0.00236349
0.0143302 0.00594933 0.00647911
0.0143283 0.00320232 0.00672922
0.0143357 0.00769293 0.00839833
0.0143297 0.00591989 0.0031859
0.0143309 0.00419688 0.00830963
0.0143312 0.00289034 0.00137069
0.0143324 0.00437468 0.000955002
0.0143283 0.0045078 0.00398655
0.0143289 0.00469992 0.00703166
0.0143318 0.00262677 0.0083775
0.0143278 0.00450814 0.00564908
0.0143292 0.00591919 0.00481723
0.0143327 0.00595003 0.00141519
0.0143351 0.00766293 0.00120255
0.0143376 0.00684073 -0.000169848
0.0143334 0.000186628 0.00315639
0.0143424 0.010165 0.00647824
0.0143278 0.00306497 0.00481716
0.0143334 0.00018619 0.00648056
0.0143394 0.00894881 0.0010488
0.0143327 0.000186105 0.00481796
0.0143363 0.00517796 -0.00016874
0.014342 0.0101645 0.00315391
0.0143402 0.00684028 0.00980309
0.0143398 0.00894749 0.00858679
0.0143336 0.00140565 0.00104908
0.0143388 0.00517671 0.00980366
0.0143339 0.00140441 0.00858759
0.0143362 0.00351455 -0.000168415
0.0143374 0.00351252 0.00980344
0.0143414 0.0101647 0.00481727
0.0143358 0.000186529 0.00149428
0.0143416 0.00850447 -0.000170672
0.0143359 0.000185968 0.00814328
0.0143447 0.0101664 0.00149387
0.0143448 0.0101651 0.0081415
0.0143435 0.00850137 0.009804
0.0143382 0.00185076 0.00980467
0.0143374 0.00185252 -0.000169156
0.0143489 0.0101668 0.00980529
0.0143483 0.0101673 -0.000171877
0.0143405 0.000184892 0.00980716
0.0143403 0.000186186 -0.000170563

CELLS 58 116
1 0
1 1
1 2
1 3
1 4
1 5
1 6
1 7
1 8
1 9
1 10
1 11
1 12
1 13
1 14
1 15
1 16
1 17
1 18
1 19
1 20
1 21
1 22
1 23
1 24
1 25
1 26
1 27
1 28
1 29
1 30
1 31
1 32
1 33
1 34
1 35
1 36
1 37
1 38
1 39
1 40
1 41
1 42
1 43
1 44
1 45
1 46
1 47
1 48
1 49
1 50
1 51
1 52
1 53
1 54
1 55
1 56
1 57

CELL_TYPES 58
1
1
1
1
1
1
1
1
1
1
1
1
1
1
1
1
1
1
1
1
1
1
1
1
1
1
1
1
1
1
1
1
1
1
1
1
1
1
1
1
1
1
1
1
1
1
1
1
1
1
1
1
1
1
1
1
1
1

POINT_DATA 58
FIELD FieldData 3

ExternalForceID_(#) 1 58 int
0
1
2
3
4
5
6
7
8
9
10
11
12
13
14
15
16
17
18
19
20
21
22
23
24
25
26
27
28
29
30
31
32
33
34
35
36
37
38
39
40
41
42
43
44
45
46
47
48
49
50
51
52
53
54
55
56
57

ExternalForceType_(0/1/2/3/4) 1 58 int
3
3
3
3
3
3
3
3
3
3
3
3
3
3
3
3
3
3
3
3
3
3
3
3
3
3
3
3
3
3
3
3
3
3
3
3
3
3
3
3
3
3
3
3
3
3
3
3
3
3
3
3
3
3
3
3
3
3

ExternalForce_(N) 3 58 double
0.001 0 0
0.001 0 0
0.001 0 0
0.001 0 0
0.001 0 0
0.001 0 0
0.001 0 0
0.001 0 0
0.001 0 0
0.001 0 0
0.001 0 0
0.001 0 0
0.001 0 0
0.001 0 0
0.001 0 0
0.001 0 0
0.001 0 0
0.001 0 0
0.001 0 0
0.001 0 0
0.001 0 0
0.001 0 0
0.001 0 0
0.001 0 0
0.001 0 0
0.001 0 0
0.001 0 0
0.001 0 0
0.001 0 0
0.001 0 0
0.001 0 0
0.001 0 0
0.001 0 0
0.001 0 0
0.001 0 0
0.001 0 0
0.001 0 0
0.001 0 0
0.001 0 0
0.001 0 0
0.001 0 0
0.001 0 0
0.001 0 0
0.001 0 0
0.001 0 0
0.001 0 0
0.001 0 0
0.001 0 0
0.001 0 0
0.001 0 0
0.001 0 0
0.001 0 0
0.001 0 0
0.001 0 0
0.001 0 0
0.001 0 0
0.001 0 0
0.001 0 0

