# vtk DataFile Version 4.2
vtk output
ASCII
DATASET UNSTRUCTURED_GRID

POINTS 58 double
0.014017 0.00902186 0.00402333
0.0140223 0.00598363 0.00814267
0.0140199 0.00735669 0.0069435
0.0140236 0.00161613 0.00400559
0.0140168 0.00745179 0.00402623
0.0140173 0.00866355 0.00564249
0.014021 0.00305152 0.00318177
0.0140243 0.00158691 0.00239585
0.014017 0.00865873 0.00245329
0.0140244 0.00161553 0.00564822
0.0140185 0.00704332 0.00560824
0.0140206 0.00880177 0.00735234
0.0140168 0.00713137 0.00245916
0.0140273 0.00154582 0.00731418
0.014019 0.00447501 0.00236993
0.01402 0.00594906 0.00649342
0.0140228 0.00319955 0.00674407
0.0140228 0.0076946 0.00841558
0.0140179 0.00591938 0.00319397
0.0140244 0.0041948 0.00832653
0.0140225 0.00288774 0.00137553
0.0140209 0.00437312 0.000959223
0.0140194 0.00450641 0.00399642
0.0140211 0.00469853 0.00704707
0.0140275 0.00262374 0.00839447
0.0140197 0.00450669 0.00566184
0.0140185 0.00591845 0.00482861
0.0140191 0.00594984 0.00142004
0.0140178 0.00766549 0.001207
0.0140205 0.00684182 -0.000166898
0.0140296 0.000180334 0.00316422
0.0140229 0.0101712 0.00649294
0.0140216 0.00306189 0.00482839
0.0140315 0.000179973 0.006495
0.0140193 0.00895246 0.00105322
0.01403 0.000179839 0.00482923
0.0140221 0.00517723 -0.000166128
0.0140207 0.0101709 0.00316263
0.0140289 0.00684109 0.00982253
0.0140243 0.00895073 0.00860434
0.0140269 0.00140167 0.00105343
0.0140306 0.00517586 0.009823
0.0140315 0.00140066 0.00860504
0.0140247 0.00351236 -0.000165923
0.0140319 0.00350976 0.00982262
0.0140211 0.0101711 0.00482852
0.0140307 0.000180503 0.00149928
0.0140209 0.00850788 -0.000168067
0.0140346 0.000180152 0.00816026
0.0140219 0.0101727 0.0014992
0.0140259 0.0101711 0.00815854
0.014029 0.00850401 0.00982344
0.0140352 0.00184759 0.00982384
0.0140286 0.00184901 -0.000166595
0.0140309 0.0101727 0.00982441
0.0140239 0.0101736 -0.000168804
0.01404 0.000179412 0.00982624
0.0140339 0.000180136 -0.000167766

CELLS 58 116
1 0
1 1
1 2
1 3
1 4
1 5
1 6
1 7
1 8
1 9
1 10
1 11
1 12
1 13
1 14
1 15
1 16
1 17
1 18
1 19
1 20
1 21
1 22
1 23
1 24
1 25
1 26
1 27
1 28
1 29
1 30
1 31
1 32
1 33
1 34
1 35
1 36
1 37
1 38
1 39
1 40
1 41
1 42
1 43
1 44
1 45
1 46
1 47
1 48
1 49
1 50
1 51
1 52
1 53
1 54
1 55
1 56
1 57

CELL_TYPES 58
1
1
1
1
1
1
1
1
1
1
1
1
1
1
1
1
1
1
1
1
1
1
1
1
1
1
1
1
1
1
1
1
1
1
1
1
1
1
1
1
1
1
1
1
1
1
1
1
1
1
1
1
1
1
1
1
1
1

POINT_DATA 58
FIELD FieldData 3

ExternalForceID_(#) 1 58 int
0
1
2
3
4
5
6
7
8
9
10
11
12
13
14
15
16
17
18
19
20
21
22
23
24
25
26
27
28
29
30
31
32
33
34
35
36
37
38
39
40
41
42
43
44
45
46
47
48
49
50
51
52
53
54
55
56
57

ExternalForceType_(0/1/2/3/4) 1 58 int
3
3
3
3
3
3
3
3
3
3
3
3
3
3
3
3
3
3
3
3
3
3
3
3
3
3
3
3
3
3
3
3
3
3
3
3
3
3
3
3
3
3
3
3
3
3
3
3
3
3
3
3
3
3
3
3
3
3

ExternalForce_(N) 3 58 double
0.001 0 0
0.001 0 0
0.001 0 0
0.001 0 0
0.001 0 0
0.001 0 0
0.001 0 0
0.001 0 0
0.001 0 0
0.001 0 0
0.001 0 0
0.001 0 0
0.001 0 0
0.001 0 0
0.001 0 0
0.001 0 0
0.001 0 0
0.001 0 0
0.001 0 0
0.001 0 0
0.001 0 0
0.001 0 0
0.001 0 0
0.001 0 0
0.001 0 0
0.001 0 0
0.001 0 0
0.001 0 0
0.001 0 0
0.001 0 0
0.001 0 0
0.001 0 0
0.001 0 0
0.001 0 0
0.001 0 0
0.001 0 0
0.001 0 0
0.001 0 0
0.001 0 0
0.001 0 0
0.001 0 0
0.001 0 0
0.001 0 0
0.001 0 0
0.001 0 0
0.001 0 0
0.001 0 0
0.001 0 0
0.001 0 0
0.001 0 0
0.001 0 0
0.001 0 0
0.001 0 0
0.001 0 0
0.001 0 0
0.001 0 0
0.001 0 0
0.001 0 0

