# vtk DataFile Version 4.2
vtk output
ASCII
DATASET UNSTRUCTURED_GRID

POINTS 58 double
0.014374 0.00901692 0.00402041
0.0143665 0.00598296 0.00813051
0.0143687 0.00735381 0.0069336
0.0143657 0.00162111 0.0040031
0.0143698 0.00744799 0.00402322
0.0143709 0.00865909 0.00563557
0.0143669 0.00305492 0.00318134
0.0143694 0.00159208 0.00239701
0.014376 0.00865412 0.00245416
0.0143641 0.00162028 0.00564104
0.014368 0.0070405 0.00560175
0.0143724 0.0087971 0.00734146
0.0143719 0.007128 0.00245994
0.0143649 0.00155068 0.0073034
0.014369 0.00447677 0.00237154
0.0143662 0.00594886 0.00648449
0.0143635 0.00320306 0.00673436
0.0143707 0.0076916 0.00840277
0.0143689 0.00591959 0.00319341
0.014365 0.0041972 0.00831409
0.0143717 0.00289119 0.00137924
0.0143737 0.00437498 0.000963823
0.0143663 0.00450792 0.00399341
0.0143642 0.00469996 0.00703664
0.0143656 0.00262765 0.00838189
0.0143642 0.00450825 0.00565496
0.0143667 0.00591893 0.00482361
0.0143738 0.00594967 0.00142385
0.0143769 0.00766147 0.00121141
0.0143807 0.00683988 -0.000160382
0.0143719 0.000189311 0.00316384
0.0143801 0.010162 0.0064836
0.0143647 0.00306588 0.00482353
0.0143687 0.000188769 0.00648573
0.014382 0.00894694 0.00105775
0.0143695 0.000188741 0.00482424
0.0143791 0.00517797 -0.000159237
0.014383 0.0101616 0.00316136
0.0143739 0.00683929 0.00980667
0.014375 0.00894554 0.00859115
0.0143743 0.00140729 0.00105775
0.014372 0.00517645 0.00980724
0.0143673 0.00140577 0.00859182
0.0143786 0.00351521 -0.000158971
0.0143703 0.00351316 0.00980706
0.0143807 0.0101618 0.00482381
0.0143761 0.000189166 0.0015027
0.0143854 0.00850275 -0.000161009
0.0143698 0.00018837 0.00814768
0.0143874 0.0101636 0.00150255
0.0143811 0.0101622 0.0081461
0.0143777 0.00849963 0.00980764
0.0143708 0.00185185 0.00980829
0.0143795 0.00185396 -0.000159808
0.0143837 0.0101639 0.00980908
0.0143928 0.0101646 -0.000162282
0.014373 0.000187199 0.00981087
0.0143822 0.000188852 -0.000161378

CELLS 58 116
1 0
1 1
1 2
1 3
1 4
1 5
1 6
1 7
1 8
1 9
1 10
1 11
1 12
1 13
1 14
1 15
1 16
1 17
1 18
1 19
1 20
1 21
1 22
1 23
1 24
1 25
1 26
1 27
1 28
1 29
1 30
1 31
1 32
1 33
1 34
1 35
1 36
1 37
1 38
1 39
1 40
1 41
1 42
1 43
1 44
1 45
1 46
1 47
1 48
1 49
1 50
1 51
1 52
1 53
1 54
1 55
1 56
1 57

CELL_TYPES 58
1
1
1
1
1
1
1
1
1
1
1
1
1
1
1
1
1
1
1
1
1
1
1
1
1
1
1
1
1
1
1
1
1
1
1
1
1
1
1
1
1
1
1
1
1
1
1
1
1
1
1
1
1
1
1
1
1
1

POINT_DATA 58
FIELD FieldData 3

ExternalForceID_(#) 1 58 int
0
1
2
3
4
5
6
7
8
9
10
11
12
13
14
15
16
17
18
19
20
21
22
23
24
25
26
27
28
29
30
31
32
33
34
35
36
37
38
39
40
41
42
43
44
45
46
47
48
49
50
51
52
53
54
55
56
57

ExternalForceType_(0/1/2/3/4) 1 58 int
3
3
3
3
3
3
3
3
3
3
3
3
3
3
3
3
3
3
3
3
3
3
3
3
3
3
3
3
3
3
3
3
3
3
3
3
3
3
3
3
3
3
3
3
3
3
3
3
3
3
3
3
3
3
3
3
3
3

ExternalForce_(N) 3 58 double
0.001 0 0
0.001 0 0
0.001 0 0
0.001 0 0
0.001 0 0
0.001 0 0
0.001 0 0
0.001 0 0
0.001 0 0
0.001 0 0
0.001 0 0
0.001 0 0
0.001 0 0
0.001 0 0
0.001 0 0
0.001 0 0
0.001 0 0
0.001 0 0
0.001 0 0
0.001 0 0
0.001 0 0
0.001 0 0
0.001 0 0
0.001 0 0
0.001 0 0
0.001 0 0
0.001 0 0
0.001 0 0
0.001 0 0
0.001 0 0
0.001 0 0
0.001 0 0
0.001 0 0
0.001 0 0
0.001 0 0
0.001 0 0
0.001 0 0
0.001 0 0
0.001 0 0
0.001 0 0
0.001 0 0
0.001 0 0
0.001 0 0
0.001 0 0
0.001 0 0
0.001 0 0
0.001 0 0
0.001 0 0
0.001 0 0
0.001 0 0
0.001 0 0
0.001 0 0
0.001 0 0
0.001 0 0
0.001 0 0
0.001 0 0
0.001 0 0
0.001 0 0

