# vtk DataFile Version 4.2
vtk output
ASCII
DATASET UNSTRUCTURED_GRID

POINTS 58 double
0.014372 0.0090173 0.00402044
0.0143648 0.00598332 0.00813049
0.0143668 0.00735417 0.00693359
0.0143642 0.00162154 0.00400312
0.0143679 0.00744836 0.00402325
0.0143689 0.00865946 0.00563559
0.0143653 0.00305533 0.00318136
0.0143678 0.00159252 0.00239703
0.014374 0.0086545 0.00245418
0.0143625 0.00162071 0.00564105
0.0143662 0.00704086 0.00560176
0.0143705 0.00879747 0.00734145
0.01437 0.00712837 0.00245997
0.0143634 0.00155111 0.00730339
0.0143673 0.00447715 0.00237157
0.0143644 0.00594922 0.0064845
0.0143619 0.00320346 0.00673436
0.0143688 0.00769197 0.00840274
0.0143671 0.00591996 0.00319344
0.0143633 0.00419758 0.00831406
0.01437 0.00289161 0.00137926
0.014372 0.00437537 0.000963835
0.0143646 0.00450831 0.00399343
0.0143625 0.00470034 0.00703663
0.014364 0.00262806 0.00838186
0.0143625 0.00450863 0.00565497
0.0143649 0.00591929 0.00482363
0.0143719 0.00595005 0.00142387
0.014375 0.00766184 0.00121143
0.0143788 0.00684025 -0.000160398
0.0143705 0.000189773 0.00316386
0.0143781 0.0101625 0.00648361
0.0143631 0.00306628 0.00482355
0.0143673 0.000189222 0.00648573
0.01438 0.00894732 0.00105777
0.0143681 0.000189197 0.00482425
0.0143773 0.00517835 -0.000159255
0.0143809 0.0101621 0.00316139
0.0143721 0.00683966 0.0098066
0.0143731 0.00894592 0.00859111
0.0143727 0.00140773 0.00105776
0.0143703 0.00517683 0.00980718
0.0143659 0.0014062 0.00859179
0.0143769 0.00351562 -0.000158989
0.0143687 0.00351355 0.00980699
0.0143787 0.0101622 0.00482384
0.0143746 0.000189635 0.00150271
0.0143834 0.00850314 -0.000161017
0.0143684 0.000188823 0.00814766
0.0143853 0.010164 0.00150257
0.0143791 0.0101627 0.00814607
0.0143758 0.00850001 0.00980757
0.0143694 0.00185228 0.00980823
0.0143779 0.0018544 -0.000159826
0.0143817 0.0101643 0.00980901
0.0143907 0.010165 -0.000162283
0.0143716 0.000187651 0.00981081
0.0143806 0.000189335 -0.000161402

CELLS 58 116
1 0
1 1
1 2
1 3
1 4
1 5
1 6
1 7
1 8
1 9
1 10
1 11
1 12
1 13
1 14
1 15
1 16
1 17
1 18
1 19
1 20
1 21
1 22
1 23
1 24
1 25
1 26
1 27
1 28
1 29
1 30
1 31
1 32
1 33
1 34
1 35
1 36
1 37
1 38
1 39
1 40
1 41
1 42
1 43
1 44
1 45
1 46
1 47
1 48
1 49
1 50
1 51
1 52
1 53
1 54
1 55
1 56
1 57

CELL_TYPES 58
1
1
1
1
1
1
1
1
1
1
1
1
1
1
1
1
1
1
1
1
1
1
1
1
1
1
1
1
1
1
1
1
1
1
1
1
1
1
1
1
1
1
1
1
1
1
1
1
1
1
1
1
1
1
1
1
1
1

POINT_DATA 58
FIELD FieldData 3

ExternalForceID_(#) 1 58 int
0
1
2
3
4
5
6
7
8
9
10
11
12
13
14
15
16
17
18
19
20
21
22
23
24
25
26
27
28
29
30
31
32
33
34
35
36
37
38
39
40
41
42
43
44
45
46
47
48
49
50
51
52
53
54
55
56
57

ExternalForceType_(0/1/2/3/4) 1 58 int
3
3
3
3
3
3
3
3
3
3
3
3
3
3
3
3
3
3
3
3
3
3
3
3
3
3
3
3
3
3
3
3
3
3
3
3
3
3
3
3
3
3
3
3
3
3
3
3
3
3
3
3
3
3
3
3
3
3

ExternalForce_(N) 3 58 double
0.001 0 0
0.001 0 0
0.001 0 0
0.001 0 0
0.001 0 0
0.001 0 0
0.001 0 0
0.001 0 0
0.001 0 0
0.001 0 0
0.001 0 0
0.001 0 0
0.001 0 0
0.001 0 0
0.001 0 0
0.001 0 0
0.001 0 0
0.001 0 0
0.001 0 0
0.001 0 0
0.001 0 0
0.001 0 0
0.001 0 0
0.001 0 0
0.001 0 0
0.001 0 0
0.001 0 0
0.001 0 0
0.001 0 0
0.001 0 0
0.001 0 0
0.001 0 0
0.001 0 0
0.001 0 0
0.001 0 0
0.001 0 0
0.001 0 0
0.001 0 0
0.001 0 0
0.001 0 0
0.001 0 0
0.001 0 0
0.001 0 0
0.001 0 0
0.001 0 0
0.001 0 0
0.001 0 0
0.001 0 0
0.001 0 0
0.001 0 0
0.001 0 0
0.001 0 0
0.001 0 0
0.001 0 0
0.001 0 0
0.001 0 0
0.001 0 0
0.001 0 0

