# vtk DataFile Version 4.2
vtk output
ASCII
DATASET UNSTRUCTURED_GRID

POINTS 58 double
0.0143701 0.00901937 0.00401683
0.0143653 0.00598541 0.00812678
0.0143666 0.00735624 0.00692989
0.0143641 0.00162386 0.00399951
0.0143664 0.0074504 0.00401965
0.0143678 0.00866153 0.00563194
0.0143646 0.00305754 0.00317775
0.0143671 0.00159485 0.00239343
0.0143716 0.00865655 0.00245055
0.0143632 0.00162304 0.00563742
0.0143655 0.00704291 0.00559812
0.0143701 0.00879953 0.00733773
0.014368 0.00713039 0.00245635
0.0143647 0.00155347 0.00729974
0.0143659 0.0044793 0.00236798
0.0143643 0.0059513 0.00648084
0.0143626 0.00320566 0.00673071
0.0143691 0.00769403 0.00839902
0.0143656 0.00592204 0.00318985
0.0143644 0.00419973 0.00831037
0.0143686 0.00289385 0.00137568
0.01437 0.00437751 0.000960234
0.0143638 0.00451044 0.00398981
0.0143629 0.00470246 0.00703296
0.0143655 0.00263033 0.00837817
0.0143624 0.00451076 0.00565132
0.0143641 0.00592137 0.00482
0.0143698 0.00595212 0.00142027
0.0143723 0.00766384 0.00120781
0.0143758 0.00684229 -0.000164076
0.0143704 0.000192189 0.00316025
0.014377 0.0101646 0.00647993
0.014363 0.00306848 0.00481992
0.0143686 0.000191632 0.00648212
0.0143769 0.00894937 0.00105413
0.0143687 0.0001916 0.00482063
0.0143747 0.00518043 -0.00016292
0.0143784 0.0101642 0.00315777
0.0143731 0.00684174 0.00980282
0.0143731 0.00894802 0.00858736
0.0143715 0.00141009 0.00105417
0.0143718 0.00517897 0.00980342
0.0143678 0.00140857 0.00858811
0.0143747 0.00351782 -0.000162631
0.0143706 0.00351575 0.00980325
0.0143769 0.0101643 0.0048202
0.0143739 0.000192068 0.00149909
0.01438 0.00850516 -0.00016468
0.0143704 0.000191262 0.008144
0.0143821 0.0101661 0.00149892
0.0143786 0.0101648 0.00814229
0.0143765 0.00850212 0.00980376
0.0143716 0.00185464 0.0098045
0.0143761 0.00185673 -0.000163461
0.014382 0.0101665 0.00980516
0.0143868 0.0101671 -0.00016596
0.0143743 0.000190087 0.00980711
0.0143793 0.000191813 -0.000165052

CELLS 58 116
1 0
1 1
1 2
1 3
1 4
1 5
1 6
1 7
1 8
1 9
1 10
1 11
1 12
1 13
1 14
1 15
1 16
1 17
1 18
1 19
1 20
1 21
1 22
1 23
1 24
1 25
1 26
1 27
1 28
1 29
1 30
1 31
1 32
1 33
1 34
1 35
1 36
1 37
1 38
1 39
1 40
1 41
1 42
1 43
1 44
1 45
1 46
1 47
1 48
1 49
1 50
1 51
1 52
1 53
1 54
1 55
1 56
1 57

CELL_TYPES 58
1
1
1
1
1
1
1
1
1
1
1
1
1
1
1
1
1
1
1
1
1
1
1
1
1
1
1
1
1
1
1
1
1
1
1
1
1
1
1
1
1
1
1
1
1
1
1
1
1
1
1
1
1
1
1
1
1
1

POINT_DATA 58
FIELD FieldData 3

ExternalForceID_(#) 1 58 int
0
1
2
3
4
5
6
7
8
9
10
11
12
13
14
15
16
17
18
19
20
21
22
23
24
25
26
27
28
29
30
31
32
33
34
35
36
37
38
39
40
41
42
43
44
45
46
47
48
49
50
51
52
53
54
55
56
57

ExternalForceType_(0/1/2/3/4) 1 58 int
3
3
3
3
3
3
3
3
3
3
3
3
3
3
3
3
3
3
3
3
3
3
3
3
3
3
3
3
3
3
3
3
3
3
3
3
3
3
3
3
3
3
3
3
3
3
3
3
3
3
3
3
3
3
3
3
3
3

ExternalForce_(N) 3 58 double
0.001 0 0
0.001 0 0
0.001 0 0
0.001 0 0
0.001 0 0
0.001 0 0
0.001 0 0
0.001 0 0
0.001 0 0
0.001 0 0
0.001 0 0
0.001 0 0
0.001 0 0
0.001 0 0
0.001 0 0
0.001 0 0
0.001 0 0
0.001 0 0
0.001 0 0
0.001 0 0
0.001 0 0
0.001 0 0
0.001 0 0
0.001 0 0
0.001 0 0
0.001 0 0
0.001 0 0
0.001 0 0
0.001 0 0
0.001 0 0
0.001 0 0
0.001 0 0
0.001 0 0
0.001 0 0
0.001 0 0
0.001 0 0
0.001 0 0
0.001 0 0
0.001 0 0
0.001 0 0
0.001 0 0
0.001 0 0
0.001 0 0
0.001 0 0
0.001 0 0
0.001 0 0
0.001 0 0
0.001 0 0
0.001 0 0
0.001 0 0
0.001 0 0
0.001 0 0
0.001 0 0
0.001 0 0
0.001 0 0
0.001 0 0
0.001 0 0
0.001 0 0

