# vtk DataFile Version 4.2
vtk output
ASCII
DATASET UNSTRUCTURED_GRID

POINTS 58 double
0.0143704 0.00901872 0.00401642
0.0143656 0.00598476 0.00812631
0.0143669 0.00735559 0.00692945
0.0143638 0.00162316 0.00399911
0.0143666 0.00744975 0.00401924
0.0143682 0.00866088 0.0056315
0.0143643 0.00305685 0.00317736
0.0143667 0.00159413 0.00239304
0.0143718 0.0086559 0.00245014
0.014363 0.00162234 0.00563701
0.0143657 0.00704226 0.00559769
0.0143705 0.00879889 0.00733727
0.014368 0.00712972 0.00245595
0.0143646 0.00155277 0.0072993
0.0143657 0.00447862 0.00236759
0.0143645 0.00595065 0.0064804
0.0143626 0.00320498 0.00673027
0.0143695 0.00769339 0.00839854
0.0143656 0.00592137 0.00318945
0.0143645 0.00419907 0.00830991
0.0143683 0.00289315 0.00137529
0.0143698 0.00437683 0.000959847
0.0143638 0.00450976 0.00398941
0.014363 0.0047018 0.00703252
0.0143655 0.00262965 0.00837772
0.0143624 0.00451009 0.0056509
0.0143642 0.00592071 0.00481959
0.0143697 0.00595144 0.00141987
0.0143723 0.00766318 0.00120742
0.0143757 0.00684162 -0.000164488
0.01437 0.000191462 0.00315986
0.0143775 0.0101639 0.00647948
0.0143629 0.0030678 0.0048195
0.0143683 0.000190914 0.00648169
0.014377 0.00894871 0.00105373
0.0143684 0.000190877 0.00482023
0.0143745 0.00517974 -0.000163324
0.0143787 0.0101635 0.00315735
0.0143735 0.0068411 0.00980233
0.0143736 0.00894738 0.00858688
0.014371 0.00140937 0.00105379
0.0143721 0.00517832 0.00980293
0.0143677 0.00140787 0.00858765
0.0143743 0.00351712 -0.000163025
0.0143707 0.00351509 0.00980277
0.0143773 0.0101636 0.00481977
0.0143733 0.000191334 0.00149872
0.01438 0.00850448 -0.000165098
0.0143702 0.000190543 0.00814354
0.0143823 0.0101654 0.00149851
0.0143792 0.0101642 0.00814181
0.014377 0.00850149 0.00980327
0.0143716 0.00185394 0.00980402
0.0143757 0.001856 -0.000163848
0.0143826 0.0101659 0.00980467
0.014387 0.0101664 -0.000166389
0.0143741 0.000189363 0.00980662
0.0143787 0.000191076 -0.000165432

CELLS 58 116
1 0
1 1
1 2
1 3
1 4
1 5
1 6
1 7
1 8
1 9
1 10
1 11
1 12
1 13
1 14
1 15
1 16
1 17
1 18
1 19
1 20
1 21
1 22
1 23
1 24
1 25
1 26
1 27
1 28
1 29
1 30
1 31
1 32
1 33
1 34
1 35
1 36
1 37
1 38
1 39
1 40
1 41
1 42
1 43
1 44
1 45
1 46
1 47
1 48
1 49
1 50
1 51
1 52
1 53
1 54
1 55
1 56
1 57

CELL_TYPES 58
1
1
1
1
1
1
1
1
1
1
1
1
1
1
1
1
1
1
1
1
1
1
1
1
1
1
1
1
1
1
1
1
1
1
1
1
1
1
1
1
1
1
1
1
1
1
1
1
1
1
1
1
1
1
1
1
1
1

POINT_DATA 58
FIELD FieldData 3

ExternalForceID_(#) 1 58 int
0
1
2
3
4
5
6
7
8
9
10
11
12
13
14
15
16
17
18
19
20
21
22
23
24
25
26
27
28
29
30
31
32
33
34
35
36
37
38
39
40
41
42
43
44
45
46
47
48
49
50
51
52
53
54
55
56
57

ExternalForceType_(0/1/2/3/4) 1 58 int
3
3
3
3
3
3
3
3
3
3
3
3
3
3
3
3
3
3
3
3
3
3
3
3
3
3
3
3
3
3
3
3
3
3
3
3
3
3
3
3
3
3
3
3
3
3
3
3
3
3
3
3
3
3
3
3
3
3

ExternalForce_(N) 3 58 double
0.001 0 0
0.001 0 0
0.001 0 0
0.001 0 0
0.001 0 0
0.001 0 0
0.001 0 0
0.001 0 0
0.001 0 0
0.001 0 0
0.001 0 0
0.001 0 0
0.001 0 0
0.001 0 0
0.001 0 0
0.001 0 0
0.001 0 0
0.001 0 0
0.001 0 0
0.001 0 0
0.001 0 0
0.001 0 0
0.001 0 0
0.001 0 0
0.001 0 0
0.001 0 0
0.001 0 0
0.001 0 0
0.001 0 0
0.001 0 0
0.001 0 0
0.001 0 0
0.001 0 0
0.001 0 0
0.001 0 0
0.001 0 0
0.001 0 0
0.001 0 0
0.001 0 0
0.001 0 0
0.001 0 0
0.001 0 0
0.001 0 0
0.001 0 0
0.001 0 0
0.001 0 0
0.001 0 0
0.001 0 0
0.001 0 0
0.001 0 0
0.001 0 0
0.001 0 0
0.001 0 0
0.001 0 0
0.001 0 0
0.001 0 0
0.001 0 0
0.001 0 0

