# vtk DataFile Version 4.2
vtk output
ASCII
DATASET UNSTRUCTURED_GRID

POINTS 58 double
0.0143711 0.00901777 0.00401803
0.0143652 0.0059838 0.00812794
0.0143669 0.00735464 0.00693108
0.0143637 0.00162209 0.00400072
0.0143671 0.00744881 0.00402085
0.0143685 0.00865993 0.00563313
0.0143645 0.00305583 0.00317897
0.0143669 0.00159306 0.00239466
0.0143727 0.00865495 0.00245176
0.0143626 0.00162127 0.00563862
0.0143659 0.00704132 0.00559931
0.0143706 0.00879795 0.00733891
0.0143688 0.00712879 0.00245757
0.0143639 0.00155169 0.00730091
0.0143662 0.00447763 0.0023692
0.0143644 0.00594969 0.00648202
0.0143622 0.00320396 0.00673189
0.0143693 0.00769244 0.00840017
0.0143661 0.00592041 0.00319106
0.014364 0.00419808 0.00831153
0.0143688 0.00289211 0.0013769
0.0143705 0.00437583 0.000961454
0.014364 0.00450878 0.00399103
0.0143627 0.00470082 0.00703414
0.0143648 0.0026286 0.00837933
0.0143624 0.00450911 0.00565252
0.0143644 0.00591974 0.00482121
0.0143705 0.00595048 0.00142148
0.0143734 0.00766225 0.00120903
0.0143769 0.00684067 -0.000162865
0.0143699 0.000190352 0.00316148
0.0143779 0.010163 0.00648111
0.0143628 0.00306678 0.00482112
0.0143676 0.000189805 0.00648329
0.0143783 0.00894777 0.00105535
0.014368 0.000189773 0.00482184
0.0143755 0.00517877 -0.000161706
0.0143797 0.0101626 0.00315897
0.014373 0.00684014 0.00980397
0.0143735 0.00894642 0.00858852
0.0143714 0.00140828 0.0010554
0.0143713 0.00517733 0.00980456
0.0143667 0.00140678 0.00858926
0.0143752 0.00351611 -0.000161415
0.0143698 0.00351407 0.00980439
0.014378 0.0101627 0.0048214
0.0143735 0.000190217 0.00150034
0.0143814 0.00850356 -0.000163481
0.0143692 0.000189421 0.00814515
0.0143836 0.0101645 0.00150014
0.0143793 0.0101632 0.00814347
0.0143766 0.00850052 0.00980492
0.0143705 0.00185286 0.00980563
0.0143763 0.00185493 -0.00016224
0.0143824 0.0101649 0.00980633
0.0143886 0.0101654 -0.000164763
0.0143728 0.000188239 0.00980822
0.0143791 0.000189944 -0.000163816

CELLS 58 116
1 0
1 1
1 2
1 3
1 4
1 5
1 6
1 7
1 8
1 9
1 10
1 11
1 12
1 13
1 14
1 15
1 16
1 17
1 18
1 19
1 20
1 21
1 22
1 23
1 24
1 25
1 26
1 27
1 28
1 29
1 30
1 31
1 32
1 33
1 34
1 35
1 36
1 37
1 38
1 39
1 40
1 41
1 42
1 43
1 44
1 45
1 46
1 47
1 48
1 49
1 50
1 51
1 52
1 53
1 54
1 55
1 56
1 57

CELL_TYPES 58
1
1
1
1
1
1
1
1
1
1
1
1
1
1
1
1
1
1
1
1
1
1
1
1
1
1
1
1
1
1
1
1
1
1
1
1
1
1
1
1
1
1
1
1
1
1
1
1
1
1
1
1
1
1
1
1
1
1

POINT_DATA 58
FIELD FieldData 3

ExternalForceID_(#) 1 58 int
0
1
2
3
4
5
6
7
8
9
10
11
12
13
14
15
16
17
18
19
20
21
22
23
24
25
26
27
28
29
30
31
32
33
34
35
36
37
38
39
40
41
42
43
44
45
46
47
48
49
50
51
52
53
54
55
56
57

ExternalForceType_(0/1/2/3/4) 1 58 int
3
3
3
3
3
3
3
3
3
3
3
3
3
3
3
3
3
3
3
3
3
3
3
3
3
3
3
3
3
3
3
3
3
3
3
3
3
3
3
3
3
3
3
3
3
3
3
3
3
3
3
3
3
3
3
3
3
3

ExternalForce_(N) 3 58 double
0.001 0 0
0.001 0 0
0.001 0 0
0.001 0 0
0.001 0 0
0.001 0 0
0.001 0 0
0.001 0 0
0.001 0 0
0.001 0 0
0.001 0 0
0.001 0 0
0.001 0 0
0.001 0 0
0.001 0 0
0.001 0 0
0.001 0 0
0.001 0 0
0.001 0 0
0.001 0 0
0.001 0 0
0.001 0 0
0.001 0 0
0.001 0 0
0.001 0 0
0.001 0 0
0.001 0 0
0.001 0 0
0.001 0 0
0.001 0 0
0.001 0 0
0.001 0 0
0.001 0 0
0.001 0 0
0.001 0 0
0.001 0 0
0.001 0 0
0.001 0 0
0.001 0 0
0.001 0 0
0.001 0 0
0.001 0 0
0.001 0 0
0.001 0 0
0.001 0 0
0.001 0 0
0.001 0 0
0.001 0 0
0.001 0 0
0.001 0 0
0.001 0 0
0.001 0 0
0.001 0 0
0.001 0 0
0.001 0 0
0.001 0 0
0.001 0 0
0.001 0 0

