# vtk DataFile Version 4.2
vtk output
ASCII
DATASET UNSTRUCTURED_GRID

POINTS 58 double
0.0134925 0.00898144 0.0040659
0.0134834 0.00594194 0.00818961
0.0134863 0.00731582 0.00698942
0.0134851 0.00157138 0.0040481
0.0134897 0.00741127 0.00406881
0.0134887 0.00862309 0.00568687
0.013487 0.00300779 0.00322349
0.013489 0.00154204 0.00243698
0.013495 0.00861823 0.00249464
0.0134824 0.00157094 0.00569262
0.0134874 0.00700253 0.00565244
0.0134884 0.00876145 0.00739872
0.0134922 0.00709079 0.00250044
0.0134814 0.00150112 0.00736022
0.0134895 0.00443208 0.00241071
0.0134847 0.0059072 0.0065387
0.0134814 0.00315596 0.00678967
0.0134864 0.00765376 0.00846279
0.0134897 0.00587722 0.00323559
0.0134816 0.00415188 0.00837352
0.0134917 0.00284374 0.00141552
0.0134937 0.00433008 0.000999009
0.0134868 0.00446371 0.00403919
0.0134821 0.004656 0.00709305
0.0134814 0.00257965 0.0084415
0.0134834 0.00446404 0.00570623
0.0134869 0.00587628 0.00487217
0.0134943 0.00590778 0.00146006
0.0134965 0.00762512 0.00124692
0.0135001 0.00680047 -0.000127195
0.0134897 0.00013407 0.00320597
0.0134946 0.0101321 0.00653843
0.0134843 0.00301809 0.00487193
0.0134845 0.000133968 0.0065402
0.0135004 0.00891225 0.0010932
0.0134866 0.000133783 0.00487279
0.0134983 0.00513483 -0.000126674
0.0134996 0.0101318 0.00320468
0.0134876 0.00679989 0.00987138
0.0134897 0.00891037 0.00865192
0.0134937 0.00135645 0.00109329
0.0134861 0.00513354 0.00987173
0.0134825 0.0013558 0.00865224
0.0134978 0.00346871 -0.000126636
0.0134842 0.00346631 0.00987116
0.0134965 0.010132 0.00487194
0.0134941 0.000134168 0.00153961
0.0135032 0.00846767 -0.000128698
0.013484 0.000134156 0.00820705
0.013504 0.0101335 0.00153965
0.013494 0.0101318 0.008206
0.0134908 0.00846335 0.00987236
0.0134842 0.001803 0.0098723
0.0134984 0.0018041 -0.000127329
0.0134955 0.010133 0.00987339
0.013509 0.0101345 -0.000129207
0.0134858 0.000133588 0.00987451
0.0135004 0.000133407 -0.000128311

CELLS 58 116
1 0
1 1
1 2
1 3
1 4
1 5
1 6
1 7
1 8
1 9
1 10
1 11
1 12
1 13
1 14
1 15
1 16
1 17
1 18
1 19
1 20
1 21
1 22
1 23
1 24
1 25
1 26
1 27
1 28
1 29
1 30
1 31
1 32
1 33
1 34
1 35
1 36
1 37
1 38
1 39
1 40
1 41
1 42
1 43
1 44
1 45
1 46
1 47
1 48
1 49
1 50
1 51
1 52
1 53
1 54
1 55
1 56
1 57

CELL_TYPES 58
1
1
1
1
1
1
1
1
1
1
1
1
1
1
1
1
1
1
1
1
1
1
1
1
1
1
1
1
1
1
1
1
1
1
1
1
1
1
1
1
1
1
1
1
1
1
1
1
1
1
1
1
1
1
1
1
1
1

POINT_DATA 58
FIELD FieldData 3

ExternalForceID_(#) 1 58 int
0
1
2
3
4
5
6
7
8
9
10
11
12
13
14
15
16
17
18
19
20
21
22
23
24
25
26
27
28
29
30
31
32
33
34
35
36
37
38
39
40
41
42
43
44
45
46
47
48
49
50
51
52
53
54
55
56
57

ExternalForceType_(0/1/2/3/4) 1 58 int
3
3
3
3
3
3
3
3
3
3
3
3
3
3
3
3
3
3
3
3
3
3
3
3
3
3
3
3
3
3
3
3
3
3
3
3
3
3
3
3
3
3
3
3
3
3
3
3
3
3
3
3
3
3
3
3
3
3

ExternalForce_(N) 3 58 double
0.001 0 0
0.001 0 0
0.001 0 0
0.001 0 0
0.001 0 0
0.001 0 0
0.001 0 0
0.001 0 0
0.001 0 0
0.001 0 0
0.001 0 0
0.001 0 0
0.001 0 0
0.001 0 0
0.001 0 0
0.001 0 0
0.001 0 0
0.001 0 0
0.001 0 0
0.001 0 0
0.001 0 0
0.001 0 0
0.001 0 0
0.001 0 0
0.001 0 0
0.001 0 0
0.001 0 0
0.001 0 0
0.001 0 0
0.001 0 0
0.001 0 0
0.001 0 0
0.001 0 0
0.001 0 0
0.001 0 0
0.001 0 0
0.001 0 0
0.001 0 0
0.001 0 0
0.001 0 0
0.001 0 0
0.001 0 0
0.001 0 0
0.001 0 0
0.001 0 0
0.001 0 0
0.001 0 0
0.001 0 0
0.001 0 0
0.001 0 0
0.001 0 0
0.001 0 0
0.001 0 0
0.001 0 0
0.001 0 0
0.001 0 0
0.001 0 0
0.001 0 0

