# vtk DataFile Version 4.2
vtk output
ASCII
DATASET UNSTRUCTURED_GRID

POINTS 58 double
0.0143737 0.0090197 0.00401774
0.0143685 0.00598569 0.00812771
0.0143699 0.00735653 0.00693083
0.0143679 0.0016242 0.00400039
0.01437 0.00745071 0.00402055
0.0143712 0.00866184 0.00563286
0.0143683 0.00305786 0.00317862
0.014371 0.00159519 0.00239427
0.0143753 0.00865688 0.00245141
0.0143667 0.00162337 0.00563834
0.0143689 0.00704321 0.00559904
0.0143732 0.00879985 0.00733868
0.0143717 0.0071307 0.00245721
0.0143681 0.00155379 0.00730067
0.0143697 0.00447959 0.00236883
0.0143677 0.00595158 0.00648177
0.014366 0.00320595 0.00673165
0.0143722 0.00769433 0.00839995
0.0143693 0.00592232 0.00319072
0.0143676 0.00420001 0.0083113
0.0143725 0.00289417 0.00137649
0.014374 0.00437782 0.000961031
0.0143675 0.00451073 0.00399071
0.0143663 0.00470274 0.0070339
0.0143687 0.00263063 0.0083791
0.0143659 0.00451105 0.00565225
0.0143677 0.00592164 0.00482092
0.0143736 0.00595241 0.00142108
0.0143762 0.00766416 0.00120863
0.0143798 0.0068426 -0.00016332
0.0143743 0.000192561 0.0031611
0.0143803 0.010165 0.00648088
0.0143666 0.00306879 0.00482082
0.0143721 0.000191987 0.00648304
0.0143808 0.00894972 0.00105495
0.0143724 0.000191963 0.00482153
0.0143788 0.00518074 -0.000162175
0.014382 0.0101646 0.00315866
0.0143761 0.00684202 0.00980373
0.0143762 0.00894834 0.00858829
0.0143755 0.00141045 0.00105496
0.0143748 0.00517924 0.00980432
0.014371 0.0014089 0.00858904
0.0143788 0.00351814 -0.000161894
0.0143736 0.00351604 0.00980415
0.0143803 0.0101647 0.00482112
0.0143779 0.000192451 0.0014999
0.0143839 0.00850551 -0.000163916
0.0143737 0.000191611 0.00814494
0.0143859 0.0101665 0.00149976
0.0143817 0.0101652 0.00814324
0.0143794 0.00850243 0.00980467
0.0143747 0.00185496 0.00980541
0.0143803 0.00185708 -0.000162729
0.0143849 0.0101669 0.00980607
0.0143908 0.0101675 -0.000165175
0.0143774 0.000190436 0.00980802
0.0143834 0.000192208 -0.000164325

CELLS 58 116
1 0
1 1
1 2
1 3
1 4
1 5
1 6
1 7
1 8
1 9
1 10
1 11
1 12
1 13
1 14
1 15
1 16
1 17
1 18
1 19
1 20
1 21
1 22
1 23
1 24
1 25
1 26
1 27
1 28
1 29
1 30
1 31
1 32
1 33
1 34
1 35
1 36
1 37
1 38
1 39
1 40
1 41
1 42
1 43
1 44
1 45
1 46
1 47
1 48
1 49
1 50
1 51
1 52
1 53
1 54
1 55
1 56
1 57

CELL_TYPES 58
1
1
1
1
1
1
1
1
1
1
1
1
1
1
1
1
1
1
1
1
1
1
1
1
1
1
1
1
1
1
1
1
1
1
1
1
1
1
1
1
1
1
1
1
1
1
1
1
1
1
1
1
1
1
1
1
1
1

POINT_DATA 58
FIELD FieldData 3

ExternalForceID_(#) 1 58 int
0
1
2
3
4
5
6
7
8
9
10
11
12
13
14
15
16
17
18
19
20
21
22
23
24
25
26
27
28
29
30
31
32
33
34
35
36
37
38
39
40
41
42
43
44
45
46
47
48
49
50
51
52
53
54
55
56
57

ExternalForceType_(0/1/2/3/4) 1 58 int
3
3
3
3
3
3
3
3
3
3
3
3
3
3
3
3
3
3
3
3
3
3
3
3
3
3
3
3
3
3
3
3
3
3
3
3
3
3
3
3
3
3
3
3
3
3
3
3
3
3
3
3
3
3
3
3
3
3

ExternalForce_(N) 3 58 double
0.001 0 0
0.001 0 0
0.001 0 0
0.001 0 0
0.001 0 0
0.001 0 0
0.001 0 0
0.001 0 0
0.001 0 0
0.001 0 0
0.001 0 0
0.001 0 0
0.001 0 0
0.001 0 0
0.001 0 0
0.001 0 0
0.001 0 0
0.001 0 0
0.001 0 0
0.001 0 0
0.001 0 0
0.001 0 0
0.001 0 0
0.001 0 0
0.001 0 0
0.001 0 0
0.001 0 0
0.001 0 0
0.001 0 0
0.001 0 0
0.001 0 0
0.001 0 0
0.001 0 0
0.001 0 0
0.001 0 0
0.001 0 0
0.001 0 0
0.001 0 0
0.001 0 0
0.001 0 0
0.001 0 0
0.001 0 0
0.001 0 0
0.001 0 0
0.001 0 0
0.001 0 0
0.001 0 0
0.001 0 0
0.001 0 0
0.001 0 0
0.001 0 0
0.001 0 0
0.001 0 0
0.001 0 0
0.001 0 0
0.001 0 0
0.001 0 0
0.001 0 0

