# vtk DataFile Version 4.2
vtk output
ASCII
DATASET UNSTRUCTURED_GRID

POINTS 58 double
0.0143237 0.0090148 0.00401832
0.0143178 0.00597943 0.00813161
0.0143196 0.00735105 0.00693391
0.0143143 0.00161499 0.00400105
0.0143196 0.00744551 0.0040212
0.0143214 0.00865686 0.00563483
0.0143154 0.0030496 0.00317861
0.014317 0.00158586 0.0023938
0.0143248 0.00865187 0.00245087
0.0143134 0.00161428 0.00564052
0.0143185 0.00703771 0.00560089
0.0143235 0.00879497 0.00734206
0.0143208 0.00712534 0.0024567
0.0143148 0.00154465 0.00730407
0.0143174 0.00447218 0.00236809
0.0143168 0.00594516 0.00648448
0.0143137 0.00319781 0.00673464
0.0143221 0.00768892 0.00840405
0.014318 0.00591568 0.00319063
0.0143159 0.00419249 0.00831532
0.0143191 0.00288575 0.00137515
0.0143211 0.00437029 0.000959436
0.0143157 0.00450346 0.00399147
0.0143148 0.00469561 0.00703714
0.0143161 0.00262214 0.0083832
0.0143143 0.00450381 0.0056543
0.0143167 0.00591498 0.00482229
0.0143218 0.00594584 0.00141967
0.014325 0.00765902 0.001207
0.0143277 0.00683667 -0.000165411
0.0143193 0.000181581 0.00316116
0.0143306 0.0101612 0.00648363
0.0143141 0.00306043 0.00482223
0.0143176 0.000181176 0.00648591
0.0143299 0.00894493 0.00105327
0.0143177 0.00018109 0.00482304
0.0143258 0.00517371 -0.000164336
0.0143319 0.0101608 0.0031587
0.0143255 0.0068362 0.00980911
0.0143265 0.00894353 0.00859259
0.014321 0.00140081 0.00105353
0.0143234 0.00517242 0.00980966
0.0143176 0.0013996 0.00859331
0.014325 0.00351004 -0.000164039
0.0143213 0.00350802 0.00980941
0.0143305 0.010161 0.0048223
0.0143225 0.000181468 0.00149882
0.0143324 0.0085006 -0.000166297
0.0143193 0.000180941 0.00814892
0.0143353 0.0101626 0.00149841
0.0143321 0.0101613 0.00814727
0.0143295 0.00849736 0.00981004
0.0143214 0.001846 0.00981062
0.0143255 0.00184775 -0.000164782
0.0143355 0.0101629 0.00981136
0.0143397 0.0101636 -0.000167462
0.0143231 0.000179889 0.00981307
0.0143277 0.000181045 -0.000166145

CELLS 58 116
1 0
1 1
1 2
1 3
1 4
1 5
1 6
1 7
1 8
1 9
1 10
1 11
1 12
1 13
1 14
1 15
1 16
1 17
1 18
1 19
1 20
1 21
1 22
1 23
1 24
1 25
1 26
1 27
1 28
1 29
1 30
1 31
1 32
1 33
1 34
1 35
1 36
1 37
1 38
1 39
1 40
1 41
1 42
1 43
1 44
1 45
1 46
1 47
1 48
1 49
1 50
1 51
1 52
1 53
1 54
1 55
1 56
1 57

CELL_TYPES 58
1
1
1
1
1
1
1
1
1
1
1
1
1
1
1
1
1
1
1
1
1
1
1
1
1
1
1
1
1
1
1
1
1
1
1
1
1
1
1
1
1
1
1
1
1
1
1
1
1
1
1
1
1
1
1
1
1
1

POINT_DATA 58
FIELD FieldData 3

ExternalForceID_(#) 1 58 int
0
1
2
3
4
5
6
7
8
9
10
11
12
13
14
15
16
17
18
19
20
21
22
23
24
25
26
27
28
29
30
31
32
33
34
35
36
37
38
39
40
41
42
43
44
45
46
47
48
49
50
51
52
53
54
55
56
57

ExternalForceType_(0/1/2/3/4) 1 58 int
3
3
3
3
3
3
3
3
3
3
3
3
3
3
3
3
3
3
3
3
3
3
3
3
3
3
3
3
3
3
3
3
3
3
3
3
3
3
3
3
3
3
3
3
3
3
3
3
3
3
3
3
3
3
3
3
3
3

ExternalForce_(N) 3 58 double
0.001 0 0
0.001 0 0
0.001 0 0
0.001 0 0
0.001 0 0
0.001 0 0
0.001 0 0
0.001 0 0
0.001 0 0
0.001 0 0
0.001 0 0
0.001 0 0
0.001 0 0
0.001 0 0
0.001 0 0
0.001 0 0
0.001 0 0
0.001 0 0
0.001 0 0
0.001 0 0
0.001 0 0
0.001 0 0
0.001 0 0
0.001 0 0
0.001 0 0
0.001 0 0
0.001 0 0
0.001 0 0
0.001 0 0
0.001 0 0
0.001 0 0
0.001 0 0
0.001 0 0
0.001 0 0
0.001 0 0
0.001 0 0
0.001 0 0
0.001 0 0
0.001 0 0
0.001 0 0
0.001 0 0
0.001 0 0
0.001 0 0
0.001 0 0
0.001 0 0
0.001 0 0
0.001 0 0
0.001 0 0
0.001 0 0
0.001 0 0
0.001 0 0
0.001 0 0
0.001 0 0
0.001 0 0
0.001 0 0
0.001 0 0
0.001 0 0
0.001 0 0

