# vtk DataFile Version 4.2
vtk output
ASCII
DATASET UNSTRUCTURED_GRID

POINTS 58 double
0.0143713 0.00901764 0.00401895
0.0143649 0.00598366 0.0081289
0.0143667 0.00735451 0.00693203
0.0143638 0.00162191 0.00400163
0.0143673 0.00744868 0.00402176
0.0143685 0.0086598 0.00563406
0.0143647 0.00305568 0.00317988
0.0143671 0.00159289 0.00239556
0.0143731 0.00865483 0.00245268
0.0143624 0.00162109 0.00563954
0.0143659 0.00704119 0.00560024
0.0143704 0.00879781 0.00733987
0.0143691 0.00712868 0.00245848
0.0143636 0.0015515 0.00730185
0.0143665 0.00447749 0.0023701
0.0143643 0.00594955 0.00648296
0.014362 0.00320381 0.00673283
0.0143689 0.00769231 0.00840114
0.0143663 0.00592028 0.00319196
0.0143636 0.00419793 0.00831248
0.0143691 0.00289196 0.0013778
0.0143709 0.0043757 0.000962358
0.0143641 0.00450864 0.00399194
0.0143625 0.00470068 0.00703508
0.0143644 0.00262843 0.00838029
0.0143623 0.00450897 0.00565345
0.0143645 0.00591962 0.00482212
0.0143709 0.00595036 0.00142239
0.0143738 0.00766214 0.00120994
0.0143775 0.00684056 -0.00016193
0.01437 0.000190158 0.00316238
0.0143778 0.0101628 0.00648205
0.0143628 0.00306663 0.00482204
0.0143674 0.000189609 0.00648421
0.0143788 0.00894765 0.00105627
0.0143679 0.000189579 0.00482275
0.014376 0.00517865 -0.000160776
0.01438 0.0101624 0.00315989
0.0143725 0.00684001 0.00980496
0.0143732 0.00894628 0.0085895
0.0143718 0.00140811 0.0010563
0.0143708 0.00517718 0.00980555
0.0143663 0.00140659 0.00859021
0.0143757 0.00351596 -0.000160495
0.0143693 0.00351391 0.00980537
0.0143781 0.0101625 0.00482232
0.0143738 0.000190022 0.00150123
0.014382 0.00850344 -0.000162547
0.0143688 0.000189219 0.0081461
0.0143841 0.0101643 0.00150106
0.0143791 0.010163 0.00814445
0.0143762 0.00850038 0.00980592
0.01437 0.00185267 0.00980661
0.0143768 0.00185476 -0.000161324
0.014382 0.0101647 0.00980734
0.0143892 0.0101653 -0.000163823
0.0143723 0.000188042 0.00980919
0.0143796 0.000189738 -0.000162899

CELLS 58 116
1 0
1 1
1 2
1 3
1 4
1 5
1 6
1 7
1 8
1 9
1 10
1 11
1 12
1 13
1 14
1 15
1 16
1 17
1 18
1 19
1 20
1 21
1 22
1 23
1 24
1 25
1 26
1 27
1 28
1 29
1 30
1 31
1 32
1 33
1 34
1 35
1 36
1 37
1 38
1 39
1 40
1 41
1 42
1 43
1 44
1 45
1 46
1 47
1 48
1 49
1 50
1 51
1 52
1 53
1 54
1 55
1 56
1 57

CELL_TYPES 58
1
1
1
1
1
1
1
1
1
1
1
1
1
1
1
1
1
1
1
1
1
1
1
1
1
1
1
1
1
1
1
1
1
1
1
1
1
1
1
1
1
1
1
1
1
1
1
1
1
1
1
1
1
1
1
1
1
1

POINT_DATA 58
FIELD FieldData 3

ExternalForceID_(#) 1 58 int
0
1
2
3
4
5
6
7
8
9
10
11
12
13
14
15
16
17
18
19
20
21
22
23
24
25
26
27
28
29
30
31
32
33
34
35
36
37
38
39
40
41
42
43
44
45
46
47
48
49
50
51
52
53
54
55
56
57

ExternalForceType_(0/1/2/3/4) 1 58 int
3
3
3
3
3
3
3
3
3
3
3
3
3
3
3
3
3
3
3
3
3
3
3
3
3
3
3
3
3
3
3
3
3
3
3
3
3
3
3
3
3
3
3
3
3
3
3
3
3
3
3
3
3
3
3
3
3
3

ExternalForce_(N) 3 58 double
0.001 0 0
0.001 0 0
0.001 0 0
0.001 0 0
0.001 0 0
0.001 0 0
0.001 0 0
0.001 0 0
0.001 0 0
0.001 0 0
0.001 0 0
0.001 0 0
0.001 0 0
0.001 0 0
0.001 0 0
0.001 0 0
0.001 0 0
0.001 0 0
0.001 0 0
0.001 0 0
0.001 0 0
0.001 0 0
0.001 0 0
0.001 0 0
0.001 0 0
0.001 0 0
0.001 0 0
0.001 0 0
0.001 0 0
0.001 0 0
0.001 0 0
0.001 0 0
0.001 0 0
0.001 0 0
0.001 0 0
0.001 0 0
0.001 0 0
0.001 0 0
0.001 0 0
0.001 0 0
0.001 0 0
0.001 0 0
0.001 0 0
0.001 0 0
0.001 0 0
0.001 0 0
0.001 0 0
0.001 0 0
0.001 0 0
0.001 0 0
0.001 0 0
0.001 0 0
0.001 0 0
0.001 0 0
0.001 0 0
0.001 0 0
0.001 0 0
0.001 0 0

