# vtk DataFile Version 4.2
vtk output
ASCII
DATASET UNSTRUCTURED_GRID

POINTS 58 double
0.0142276 0.00901917 0.00403145
0.0142206 0.00598245 0.00814829
0.0142223 0.00735469 0.00694972
0.0142252 0.00161739 0.00401384
0.0142252 0.00744954 0.00403428
0.0142241 0.00866097 0.00564949
0.0142259 0.00305214 0.00319067
0.0142294 0.00158832 0.00240521
0.0142305 0.00865619 0.00246272
0.0142226 0.00161665 0.00565504
0.0142231 0.00704143 0.00561538
0.0142242 0.00879909 0.00735832
0.0142281 0.00712941 0.00246848
0.0142223 0.0015469 0.00732001
0.0142273 0.00447494 0.00237944
0.0142215 0.00594812 0.00649983
0.0142205 0.00320014 0.00675022
0.0142228 0.00769251 0.00842101
0.0142261 0.00591868 0.00320279
0.0142202 0.00419489 0.00833203
0.0142312 0.0028884 0.00138564
0.0142322 0.00437316 0.00096969
0.0142242 0.00450623 0.0040045
0.0142199 0.00469826 0.00705303
0.0142215 0.00262439 0.00839988
0.0142211 0.0045065 0.00566883
0.0142232 0.00591782 0.00483613
0.0142312 0.00594907 0.00143029
0.0142328 0.00766332 0.00121752
0.0142374 0.0068404 -0.00015549
0.0142319 0.00018338 0.0031731
0.0142304 0.0101669 0.00649927
0.014223 0.00306274 0.00483596
0.0142269 0.000182884 0.00650116
0.0142364 0.00894969 0.00106387
0.0142288 0.000182845 0.00483671
0.0142369 0.00517695 -0.000154666
0.0142351 0.0101667 0.00317135
0.0142254 0.00683945 0.00982706
0.0142257 0.00894774 0.00860973
0.0142347 0.0014033 0.00106372
0.0142249 0.00517511 0.00982754
0.0142238 0.00140184 0.00861026
0.0142376 0.00351283 -0.000154551
0.0142243 0.0035102 0.00982719
0.0142321 0.0101668 0.0048362
0.0142366 0.000183457 0.0015093
0.0142401 0.00850536 -0.000156445
0.0142268 0.000182752 0.00816564
0.0142399 0.0101687 0.0015095
0.0142302 0.0101669 0.00816424
0.0142276 0.00850127 0.00982804
0.0142259 0.00184838 0.00982843
0.0142396 0.00185041 -0.000155365
0.0142318 0.0101683 0.00982925
0.0142455 0.0101697 -0.000157265
0.0142289 0.000181871 0.00983094
0.0142432 0.000183034 -0.000156718

CELLS 58 116
1 0
1 1
1 2
1 3
1 4
1 5
1 6
1 7
1 8
1 9
1 10
1 11
1 12
1 13
1 14
1 15
1 16
1 17
1 18
1 19
1 20
1 21
1 22
1 23
1 24
1 25
1 26
1 27
1 28
1 29
1 30
1 31
1 32
1 33
1 34
1 35
1 36
1 37
1 38
1 39
1 40
1 41
1 42
1 43
1 44
1 45
1 46
1 47
1 48
1 49
1 50
1 51
1 52
1 53
1 54
1 55
1 56
1 57

CELL_TYPES 58
1
1
1
1
1
1
1
1
1
1
1
1
1
1
1
1
1
1
1
1
1
1
1
1
1
1
1
1
1
1
1
1
1
1
1
1
1
1
1
1
1
1
1
1
1
1
1
1
1
1
1
1
1
1
1
1
1
1

POINT_DATA 58
FIELD FieldData 3

ExternalForceID_(#) 1 58 int
0
1
2
3
4
5
6
7
8
9
10
11
12
13
14
15
16
17
18
19
20
21
22
23
24
25
26
27
28
29
30
31
32
33
34
35
36
37
38
39
40
41
42
43
44
45
46
47
48
49
50
51
52
53
54
55
56
57

ExternalForceType_(0/1/2/3/4) 1 58 int
3
3
3
3
3
3
3
3
3
3
3
3
3
3
3
3
3
3
3
3
3
3
3
3
3
3
3
3
3
3
3
3
3
3
3
3
3
3
3
3
3
3
3
3
3
3
3
3
3
3
3
3
3
3
3
3
3
3

ExternalForce_(N) 3 58 double
0.001 0 0
0.001 0 0
0.001 0 0
0.001 0 0
0.001 0 0
0.001 0 0
0.001 0 0
0.001 0 0
0.001 0 0
0.001 0 0
0.001 0 0
0.001 0 0
0.001 0 0
0.001 0 0
0.001 0 0
0.001 0 0
0.001 0 0
0.001 0 0
0.001 0 0
0.001 0 0
0.001 0 0
0.001 0 0
0.001 0 0
0.001 0 0
0.001 0 0
0.001 0 0
0.001 0 0
0.001 0 0
0.001 0 0
0.001 0 0
0.001 0 0
0.001 0 0
0.001 0 0
0.001 0 0
0.001 0 0
0.001 0 0
0.001 0 0
0.001 0 0
0.001 0 0
0.001 0 0
0.001 0 0
0.001 0 0
0.001 0 0
0.001 0 0
0.001 0 0
0.001 0 0
0.001 0 0
0.001 0 0
0.001 0 0
0.001 0 0
0.001 0 0
0.001 0 0
0.001 0 0
0.001 0 0
0.001 0 0
0.001 0 0
0.001 0 0
0.001 0 0

