# vtk DataFile Version 4.2
vtk output
ASCII
DATASET UNSTRUCTURED_GRID

POINTS 58 double
0.0143559 0.00902633 0.00401179
0.014356 0.00599165 0.00812306
0.0143555 0.00736281 0.00692585
0.0143556 0.00162953 0.00399436
0.0143535 0.00745712 0.00401462
0.0143549 0.00866838 0.00562749
0.0143544 0.00306333 0.00317228
0.0143575 0.0016005 0.00238769
0.0143566 0.00866345 0.00244486
0.0143556 0.00162873 0.00563302
0.0143539 0.00704946 0.0055936
0.014358 0.00880641 0.00733383
0.0143542 0.00713703 0.00245069
0.0143582 0.00155915 0.00729586
0.0143541 0.00448526 0.00236221
0.0143541 0.00595747 0.00647669
0.0143547 0.00321138 0.00672667
0.0143586 0.00770063 0.0083954
0.0143534 0.00592817 0.00318443
0.0143566 0.00420554 0.0083067
0.0143573 0.00289967 0.00136956
0.0143573 0.00438348 0.000953945
0.0143532 0.00451641 0.00398475
0.014354 0.00470841 0.00702903
0.0143588 0.00263608 0.00837453
0.0143529 0.00451671 0.00564686
0.014353 0.00592744 0.00481526
0.0143563 0.00595832 0.00141412
0.0143572 0.00767059 0.00120156
0.0143604 0.00684875 -0.000170782
0.0143621 0.000197328 0.00315475
0.0143632 0.0101723 0.00647584
0.014354 0.00307414 0.00481513
0.0143624 0.000196759 0.00647804
0.0143606 0.00895644 0.00104784
0.0143615 0.000196715 0.00481587
0.0143606 0.00518652 -0.000169677
0.0143625 0.0101719 0.00315245
0.014364 0.00684813 0.00979958
0.0143617 0.00895503 0.00858376
0.014361 0.00141573 0.00104792
0.014364 0.00518506 0.00980017
0.014362 0.00141424 0.00858459
0.0143618 0.0035237 -0.000169382
0.014364 0.00352146 0.0098
0.014362 0.0101721 0.00481542
0.0143644 0.000197296 0.00149296
0.0143632 0.00851213 -0.000171437
0.0143652 0.000196512 0.00814041
0.014365 0.0101738 0.00149282
0.0143658 0.0101725 0.00813855
0.014366 0.008509 0.0098005
0.0143662 0.00186043 0.00980127
0.0143645 0.00186245 -0.000170181
0.0143701 0.0101743 0.00980177
0.0143686 0.0101748 -0.000172627
0.01437 0.000195403 0.00980388
0.0143688 0.000197106 -0.000171731

CELLS 58 116
1 0
1 1
1 2
1 3
1 4
1 5
1 6
1 7
1 8
1 9
1 10
1 11
1 12
1 13
1 14
1 15
1 16
1 17
1 18
1 19
1 20
1 21
1 22
1 23
1 24
1 25
1 26
1 27
1 28
1 29
1 30
1 31
1 32
1 33
1 34
1 35
1 36
1 37
1 38
1 39
1 40
1 41
1 42
1 43
1 44
1 45
1 46
1 47
1 48
1 49
1 50
1 51
1 52
1 53
1 54
1 55
1 56
1 57

CELL_TYPES 58
1
1
1
1
1
1
1
1
1
1
1
1
1
1
1
1
1
1
1
1
1
1
1
1
1
1
1
1
1
1
1
1
1
1
1
1
1
1
1
1
1
1
1
1
1
1
1
1
1
1
1
1
1
1
1
1
1
1

POINT_DATA 58
FIELD FieldData 3

ExternalForceID_(#) 1 58 int
0
1
2
3
4
5
6
7
8
9
10
11
12
13
14
15
16
17
18
19
20
21
22
23
24
25
26
27
28
29
30
31
32
33
34
35
36
37
38
39
40
41
42
43
44
45
46
47
48
49
50
51
52
53
54
55
56
57

ExternalForceType_(0/1/2/3/4) 1 58 int
3
3
3
3
3
3
3
3
3
3
3
3
3
3
3
3
3
3
3
3
3
3
3
3
3
3
3
3
3
3
3
3
3
3
3
3
3
3
3
3
3
3
3
3
3
3
3
3
3
3
3
3
3
3
3
3
3
3

ExternalForce_(N) 3 58 double
0.001 0 0
0.001 0 0
0.001 0 0
0.001 0 0
0.001 0 0
0.001 0 0
0.001 0 0
0.001 0 0
0.001 0 0
0.001 0 0
0.001 0 0
0.001 0 0
0.001 0 0
0.001 0 0
0.001 0 0
0.001 0 0
0.001 0 0
0.001 0 0
0.001 0 0
0.001 0 0
0.001 0 0
0.001 0 0
0.001 0 0
0.001 0 0
0.001 0 0
0.001 0 0
0.001 0 0
0.001 0 0
0.001 0 0
0.001 0 0
0.001 0 0
0.001 0 0
0.001 0 0
0.001 0 0
0.001 0 0
0.001 0 0
0.001 0 0
0.001 0 0
0.001 0 0
0.001 0 0
0.001 0 0
0.001 0 0
0.001 0 0
0.001 0 0
0.001 0 0
0.001 0 0
0.001 0 0
0.001 0 0
0.001 0 0
0.001 0 0
0.001 0 0
0.001 0 0
0.001 0 0
0.001 0 0
0.001 0 0
0.001 0 0
0.001 0 0
0.001 0 0

