# vtk DataFile Version 4.2
vtk output
ASCII
DATASET UNSTRUCTURED_GRID

POINTS 58 double
0.0143701 0.00901912 0.00401554
0.0143659 0.00598516 0.00812537
0.014367 0.00735599 0.00692852
0.014364 0.00162362 0.00399823
0.0143664 0.00745014 0.00401836
0.0143681 0.00866128 0.0056306
0.0143643 0.00305729 0.00317648
0.0143667 0.00159459 0.00239217
0.0143714 0.00865629 0.00244925
0.0143633 0.0016228 0.00563611
0.0143657 0.00704265 0.00559679
0.0143706 0.00879929 0.00733633
0.0143677 0.00713011 0.00245507
0.0143651 0.00155324 0.00729838
0.0143655 0.00447903 0.00236672
0.0143646 0.00595105 0.00647949
0.0143629 0.00320541 0.00672936
0.0143697 0.00769379 0.00839759
0.0143654 0.00592177 0.00318858
0.014365 0.00419948 0.00830896
0.014368 0.00289358 0.00137443
0.0143694 0.00437724 0.000958973
0.0143637 0.00451017 0.00398853
0.0143633 0.00470221 0.0070316
0.014366 0.0026301 0.00837678
0.0143626 0.0045105 0.00565
0.0143642 0.0059211 0.00481869
0.0143693 0.00595184 0.001419
0.0143719 0.00766356 0.00120654
0.0143751 0.006842 -0.000165396
0.0143701 0.000191944 0.00315899
0.0143775 0.0101644 0.00647856
0.014363 0.00306823 0.00481861
0.0143688 0.000191394 0.00648079
0.0143765 0.0089491 0.00105284
0.0143687 0.000191356 0.00481934
0.014374 0.00518013 -0.000164227
0.0143783 0.0101639 0.00315647
0.014374 0.0068415 0.00980135
0.0143739 0.00894779 0.00858591
0.0143708 0.00140983 0.00105292
0.0143726 0.00517873 0.00980195
0.0143683 0.00140834 0.00858671
0.0143739 0.00351755 -0.00016392
0.0143714 0.00351551 0.00980179
0.0143771 0.0101641 0.00481888
0.0143733 0.00019182 0.00149785
0.0143793 0.00850487 -0.000166002
0.0143708 0.000191029 0.00814261
0.0143818 0.0101658 0.00149762
0.0143793 0.0101646 0.00814085
0.0143774 0.0085019 0.00980228
0.0143723 0.00185441 0.00980305
0.0143753 0.00185646 -0.000164739
0.0143829 0.0101663 0.00980367
0.0143863 0.0101668 -0.000167295
0.0143749 0.000189845 0.00980565
0.0143784 0.000191577 -0.000166326

CELLS 58 116
1 0
1 1
1 2
1 3
1 4
1 5
1 6
1 7
1 8
1 9
1 10
1 11
1 12
1 13
1 14
1 15
1 16
1 17
1 18
1 19
1 20
1 21
1 22
1 23
1 24
1 25
1 26
1 27
1 28
1 29
1 30
1 31
1 32
1 33
1 34
1 35
1 36
1 37
1 38
1 39
1 40
1 41
1 42
1 43
1 44
1 45
1 46
1 47
1 48
1 49
1 50
1 51
1 52
1 53
1 54
1 55
1 56
1 57

CELL_TYPES 58
1
1
1
1
1
1
1
1
1
1
1
1
1
1
1
1
1
1
1
1
1
1
1
1
1
1
1
1
1
1
1
1
1
1
1
1
1
1
1
1
1
1
1
1
1
1
1
1
1
1
1
1
1
1
1
1
1
1

POINT_DATA 58
FIELD FieldData 3

ExternalForceID_(#) 1 58 int
0
1
2
3
4
5
6
7
8
9
10
11
12
13
14
15
16
17
18
19
20
21
22
23
24
25
26
27
28
29
30
31
32
33
34
35
36
37
38
39
40
41
42
43
44
45
46
47
48
49
50
51
52
53
54
55
56
57

ExternalForceType_(0/1/2/3/4) 1 58 int
3
3
3
3
3
3
3
3
3
3
3
3
3
3
3
3
3
3
3
3
3
3
3
3
3
3
3
3
3
3
3
3
3
3
3
3
3
3
3
3
3
3
3
3
3
3
3
3
3
3
3
3
3
3
3
3
3
3

ExternalForce_(N) 3 58 double
0.001 0 0
0.001 0 0
0.001 0 0
0.001 0 0
0.001 0 0
0.001 0 0
0.001 0 0
0.001 0 0
0.001 0 0
0.001 0 0
0.001 0 0
0.001 0 0
0.001 0 0
0.001 0 0
0.001 0 0
0.001 0 0
0.001 0 0
0.001 0 0
0.001 0 0
0.001 0 0
0.001 0 0
0.001 0 0
0.001 0 0
0.001 0 0
0.001 0 0
0.001 0 0
0.001 0 0
0.001 0 0
0.001 0 0
0.001 0 0
0.001 0 0
0.001 0 0
0.001 0 0
0.001 0 0
0.001 0 0
0.001 0 0
0.001 0 0
0.001 0 0
0.001 0 0
0.001 0 0
0.001 0 0
0.001 0 0
0.001 0 0
0.001 0 0
0.001 0 0
0.001 0 0
0.001 0 0
0.001 0 0
0.001 0 0
0.001 0 0
0.001 0 0
0.001 0 0
0.001 0 0
0.001 0 0
0.001 0 0
0.001 0 0
0.001 0 0
0.001 0 0

