# vtk DataFile Version 4.2
vtk output
ASCII
DATASET UNSTRUCTURED_GRID

POINTS 58 double
0.0113541 0.00884816 0.00414867
0.0113402 0.00582268 0.00823868
0.0113455 0.00718945 0.00704687
0.011318 0.00146966 0.00413097
0.0113419 0.0072812 0.00415117
0.0113512 0.00849168 0.00575541
0.0113227 0.00290065 0.00331361
0.0113209 0.00144061 0.00253224
0.0113538 0.00848578 0.00258943
0.0113186 0.00146897 0.00575985
0.0113404 0.00687582 0.00572224
0.0113575 0.00862955 0.00745272
0.0113418 0.00696146 0.00259507
0.0113232 0.00140008 0.00741457
0.011329 0.0043194 0.00250785
0.011336 0.00578884 0.00659996
0.0113246 0.00304946 0.00684799
0.0113529 0.00752724 0.00850971
0.0113337 0.00575935 0.00332589
0.0113328 0.00404202 0.00842165
0.0113266 0.00273664 0.00151936
0.0113338 0.00421737 0.00110551
0.011327 0.0043505 0.0041211
0.0113308 0.00454288 0.00714903
0.0113294 0.00247532 0.00848921
0.0113273 0.00435122 0.00577434
0.0113332 0.00575957 0.0049473
0.0113389 0.00578845 0.00156425
0.0113497 0.00749356 0.00135295
0.011351 0.00667535 -1.56167e-05
0.0113227 4.41197e-05 0.0032958
0.011373 0.00998702 0.00659865
0.0113219 0.00291257 0.0049469
0.0113241 4.40834e-05 0.00660012
0.0113617 0.00877645 0.00119935
0.011322 4.39218e-05 0.0049472
0.0113435 0.0050179 -1.40963e-05
0.0113711 0.00998549 0.00329308
0.0113581 0.00667739 0.00990738
0.0113641 0.00877772 0.0086971
0.0113252 0.00125623 0.00119897
0.0113497 0.00501876 0.00990808
0.0113286 0.00125566 0.00869766
0.0113373 0.00335916 -1.37389e-05
0.0113422 0.00336023 0.00990829
0.0113705 0.00998592 0.00494823
0.0113261 4.32188e-05 0.00164206
0.0113645 0.00833256 -1.51118e-05
0.011329 4.31763e-05 0.0082548
0.0113751 0.00998706 0.00164199
0.0113774 0.00998811 0.00825372
0.0113694 0.00833374 0.00990814
0.0113379 0.00170029 0.00990932
0.0113332 0.00170128 -1.4642e-05
0.0113838 0.00999058 0.00991006
0.011381 0.0099878 -1.71257e-05
0.0113358 4.13467e-05 0.00991156
0.0113318 4.28696e-05 -1.67375e-05

CELLS 58 116
1 0
1 1
1 2
1 3
1 4
1 5
1 6
1 7
1 8
1 9
1 10
1 11
1 12
1 13
1 14
1 15
1 16
1 17
1 18
1 19
1 20
1 21
1 22
1 23
1 24
1 25
1 26
1 27
1 28
1 29
1 30
1 31
1 32
1 33
1 34
1 35
1 36
1 37
1 38
1 39
1 40
1 41
1 42
1 43
1 44
1 45
1 46
1 47
1 48
1 49
1 50
1 51
1 52
1 53
1 54
1 55
1 56
1 57

CELL_TYPES 58
1
1
1
1
1
1
1
1
1
1
1
1
1
1
1
1
1
1
1
1
1
1
1
1
1
1
1
1
1
1
1
1
1
1
1
1
1
1
1
1
1
1
1
1
1
1
1
1
1
1
1
1
1
1
1
1
1
1

POINT_DATA 58
FIELD FieldData 3

ExternalForceID_(#) 1 58 int
0
1
2
3
4
5
6
7
8
9
10
11
12
13
14
15
16
17
18
19
20
21
22
23
24
25
26
27
28
29
30
31
32
33
34
35
36
37
38
39
40
41
42
43
44
45
46
47
48
49
50
51
52
53
54
55
56
57

ExternalForceType_(0/1/2/3/4) 1 58 int
3
3
3
3
3
3
3
3
3
3
3
3
3
3
3
3
3
3
3
3
3
3
3
3
3
3
3
3
3
3
3
3
3
3
3
3
3
3
3
3
3
3
3
3
3
3
3
3
3
3
3
3
3
3
3
3
3
3

ExternalForce_(N) 3 58 double
0.001 0 0
0.001 0 0
0.001 0 0
0.001 0 0
0.001 0 0
0.001 0 0
0.001 0 0
0.001 0 0
0.001 0 0
0.001 0 0
0.001 0 0
0.001 0 0
0.001 0 0
0.001 0 0
0.001 0 0
0.001 0 0
0.001 0 0
0.001 0 0
0.001 0 0
0.001 0 0
0.001 0 0
0.001 0 0
0.001 0 0
0.001 0 0
0.001 0 0
0.001 0 0
0.001 0 0
0.001 0 0
0.001 0 0
0.001 0 0
0.001 0 0
0.001 0 0
0.001 0 0
0.001 0 0
0.001 0 0
0.001 0 0
0.001 0 0
0.001 0 0
0.001 0 0
0.001 0 0
0.001 0 0
0.001 0 0
0.001 0 0
0.001 0 0
0.001 0 0
0.001 0 0
0.001 0 0
0.001 0 0
0.001 0 0
0.001 0 0
0.001 0 0
0.001 0 0
0.001 0 0
0.001 0 0
0.001 0 0
0.001 0 0
0.001 0 0
0.001 0 0

