# vtk DataFile Version 4.2
vtk output
ASCII
DATASET UNSTRUCTURED_GRID

POINTS 58 double
0.0143703 0.00901881 0.00401601
0.0143657 0.00598486 0.00812587
0.0143669 0.00735568 0.00692901
0.0143638 0.00162327 0.0039987
0.0143665 0.00744984 0.00401883
0.0143681 0.00866098 0.00563108
0.0143643 0.00305696 0.00317695
0.0143667 0.00159425 0.00239264
0.0143716 0.00865599 0.00244972
0.014363 0.00162246 0.00563659
0.0143657 0.00704235 0.00559727
0.0143705 0.00879899 0.00733684
0.0143679 0.00712981 0.00245554
0.0143648 0.00155289 0.00729887
0.0143656 0.00447872 0.00236718
0.0143645 0.00595074 0.00647998
0.0143627 0.00320508 0.00672985
0.0143696 0.00769349 0.0083981
0.0143655 0.00592146 0.00318904
0.0143647 0.00419917 0.00830947
0.0143681 0.00289325 0.00137489
0.0143696 0.00437692 0.000959441
0.0143637 0.00450986 0.003989
0.0143631 0.00470189 0.00703209
0.0143657 0.00262976 0.00837728
0.0143625 0.00451019 0.00565048
0.0143642 0.0059208 0.00481917
0.0143695 0.00595153 0.00141947
0.0143721 0.00766326 0.00120701
0.0143754 0.0068417 -0.00016491
0.01437 0.000191583 0.00315946
0.0143775 0.0101641 0.00647905
0.0143629 0.0030679 0.00481909
0.0143685 0.000191035 0.00648127
0.0143768 0.0089488 0.00105331
0.0143684 0.000190998 0.00481982
0.0143742 0.00517983 -0.000163744
0.0143786 0.0101636 0.00315694
0.0143737 0.00684119 0.00980188
0.0143737 0.00894748 0.00858643
0.0143709 0.00140948 0.00105339
0.0143723 0.00517842 0.00980248
0.0143679 0.00140799 0.00858721
0.0143741 0.00351722 -0.00016344
0.014371 0.00351519 0.00980232
0.0143772 0.0101638 0.00481936
0.0143732 0.000191455 0.00149831
0.0143797 0.00850457 -0.00016552
0.0143704 0.000190667 0.00814311
0.0143821 0.0101655 0.00149809
0.0143793 0.0101643 0.00814137
0.0143772 0.00850159 0.00980281
0.0143719 0.00185406 0.00980357
0.0143754 0.00185612 -0.000164261
0.0143828 0.010166 0.00980421
0.0143867 0.0101665 -0.000166812
0.0143744 0.000189485 0.00980617
0.0143785 0.000191203 -0.000165845

CELLS 58 116
1 0
1 1
1 2
1 3
1 4
1 5
1 6
1 7
1 8
1 9
1 10
1 11
1 12
1 13
1 14
1 15
1 16
1 17
1 18
1 19
1 20
1 21
1 22
1 23
1 24
1 25
1 26
1 27
1 28
1 29
1 30
1 31
1 32
1 33
1 34
1 35
1 36
1 37
1 38
1 39
1 40
1 41
1 42
1 43
1 44
1 45
1 46
1 47
1 48
1 49
1 50
1 51
1 52
1 53
1 54
1 55
1 56
1 57

CELL_TYPES 58
1
1
1
1
1
1
1
1
1
1
1
1
1
1
1
1
1
1
1
1
1
1
1
1
1
1
1
1
1
1
1
1
1
1
1
1
1
1
1
1
1
1
1
1
1
1
1
1
1
1
1
1
1
1
1
1
1
1

POINT_DATA 58
FIELD FieldData 3

ExternalForceID_(#) 1 58 int
0
1
2
3
4
5
6
7
8
9
10
11
12
13
14
15
16
17
18
19
20
21
22
23
24
25
26
27
28
29
30
31
32
33
34
35
36
37
38
39
40
41
42
43
44
45
46
47
48
49
50
51
52
53
54
55
56
57

ExternalForceType_(0/1/2/3/4) 1 58 int
3
3
3
3
3
3
3
3
3
3
3
3
3
3
3
3
3
3
3
3
3
3
3
3
3
3
3
3
3
3
3
3
3
3
3
3
3
3
3
3
3
3
3
3
3
3
3
3
3
3
3
3
3
3
3
3
3
3

ExternalForce_(N) 3 58 double
0.001 0 0
0.001 0 0
0.001 0 0
0.001 0 0
0.001 0 0
0.001 0 0
0.001 0 0
0.001 0 0
0.001 0 0
0.001 0 0
0.001 0 0
0.001 0 0
0.001 0 0
0.001 0 0
0.001 0 0
0.001 0 0
0.001 0 0
0.001 0 0
0.001 0 0
0.001 0 0
0.001 0 0
0.001 0 0
0.001 0 0
0.001 0 0
0.001 0 0
0.001 0 0
0.001 0 0
0.001 0 0
0.001 0 0
0.001 0 0
0.001 0 0
0.001 0 0
0.001 0 0
0.001 0 0
0.001 0 0
0.001 0 0
0.001 0 0
0.001 0 0
0.001 0 0
0.001 0 0
0.001 0 0
0.001 0 0
0.001 0 0
0.001 0 0
0.001 0 0
0.001 0 0
0.001 0 0
0.001 0 0
0.001 0 0
0.001 0 0
0.001 0 0
0.001 0 0
0.001 0 0
0.001 0 0
0.001 0 0
0.001 0 0
0.001 0 0
0.001 0 0

