# vtk DataFile Version 4.2
vtk output
ASCII
DATASET UNSTRUCTURED_GRID

POINTS 58 double
0.0143701 0.00901983 0.00401668
0.0143655 0.00598588 0.00812663
0.0143666 0.0073567 0.00692974
0.0143644 0.00162433 0.00399935
0.0143664 0.00745087 0.00401949
0.0143678 0.00866199 0.00563178
0.0143648 0.00305801 0.0031776
0.0143674 0.00159531 0.00239327
0.0143716 0.00865702 0.0024504
0.0143635 0.0016235 0.00563726
0.0143655 0.00704338 0.00559796
0.01437 0.00879999 0.00733758
0.014368 0.00713086 0.0024562
0.0143651 0.00155392 0.00729958
0.014366 0.00447977 0.00236783
0.0143644 0.00595178 0.00648068
0.0143629 0.00320613 0.00673055
0.0143691 0.00769449 0.00839887
0.0143657 0.00592252 0.00318969
0.0143646 0.0042002 0.00831022
0.0143688 0.00289432 0.00137553
0.0143701 0.00437799 0.000960102
0.014364 0.00451091 0.00398965
0.0143631 0.00470293 0.0070328
0.0143658 0.0026308 0.00837802
0.0143626 0.00451123 0.00565116
0.0143642 0.00592185 0.00481984
0.0143698 0.0059526 0.00142013
0.0143723 0.00766432 0.00120768
0.0143758 0.00684277 -0.000164179
0.0143708 0.000192635 0.00316009
0.0143769 0.010165 0.00647978
0.0143633 0.00306895 0.00481975
0.014369 0.000192079 0.00648195
0.0143768 0.00894984 0.001054
0.0143691 0.000192045 0.00482047
0.0143748 0.00518091 -0.000163024
0.0143783 0.0101646 0.00315762
0.0143732 0.0068422 0.00980269
0.0143731 0.00894847 0.00858722
0.0143717 0.00141055 0.00105403
0.014372 0.00517944 0.00980329
0.0143681 0.00140903 0.00858796
0.0143748 0.00351829 -0.000162739
0.0143709 0.00351622 0.00980312
0.0143768 0.0101647 0.00482005
0.0143742 0.000192514 0.00149895
0.0143799 0.00850562 -0.000164783
0.0143708 0.000191712 0.00814385
0.014382 0.0101665 0.00149879
0.0143786 0.0101652 0.00814214
0.0143765 0.00850258 0.00980364
0.014372 0.0018551 0.00980437
0.0143764 0.00185719 -0.000163569
0.0143819 0.0101669 0.00980505
0.0143867 0.0101675 -0.000166066
0.0143747 0.00019054 0.00980698
0.0143796 0.000192256 -0.000165161

CELLS 58 116
1 0
1 1
1 2
1 3
1 4
1 5
1 6
1 7
1 8
1 9
1 10
1 11
1 12
1 13
1 14
1 15
1 16
1 17
1 18
1 19
1 20
1 21
1 22
1 23
1 24
1 25
1 26
1 27
1 28
1 29
1 30
1 31
1 32
1 33
1 34
1 35
1 36
1 37
1 38
1 39
1 40
1 41
1 42
1 43
1 44
1 45
1 46
1 47
1 48
1 49
1 50
1 51
1 52
1 53
1 54
1 55
1 56
1 57

CELL_TYPES 58
1
1
1
1
1
1
1
1
1
1
1
1
1
1
1
1
1
1
1
1
1
1
1
1
1
1
1
1
1
1
1
1
1
1
1
1
1
1
1
1
1
1
1
1
1
1
1
1
1
1
1
1
1
1
1
1
1
1

POINT_DATA 58
FIELD FieldData 3

ExternalForceID_(#) 1 58 int
0
1
2
3
4
5
6
7
8
9
10
11
12
13
14
15
16
17
18
19
20
21
22
23
24
25
26
27
28
29
30
31
32
33
34
35
36
37
38
39
40
41
42
43
44
45
46
47
48
49
50
51
52
53
54
55
56
57

ExternalForceType_(0/1/2/3/4) 1 58 int
3
3
3
3
3
3
3
3
3
3
3
3
3
3
3
3
3
3
3
3
3
3
3
3
3
3
3
3
3
3
3
3
3
3
3
3
3
3
3
3
3
3
3
3
3
3
3
3
3
3
3
3
3
3
3
3
3
3

ExternalForce_(N) 3 58 double
0.001 0 0
0.001 0 0
0.001 0 0
0.001 0 0
0.001 0 0
0.001 0 0
0.001 0 0
0.001 0 0
0.001 0 0
0.001 0 0
0.001 0 0
0.001 0 0
0.001 0 0
0.001 0 0
0.001 0 0
0.001 0 0
0.001 0 0
0.001 0 0
0.001 0 0
0.001 0 0
0.001 0 0
0.001 0 0
0.001 0 0
0.001 0 0
0.001 0 0
0.001 0 0
0.001 0 0
0.001 0 0
0.001 0 0
0.001 0 0
0.001 0 0
0.001 0 0
0.001 0 0
0.001 0 0
0.001 0 0
0.001 0 0
0.001 0 0
0.001 0 0
0.001 0 0
0.001 0 0
0.001 0 0
0.001 0 0
0.001 0 0
0.001 0 0
0.001 0 0
0.001 0 0
0.001 0 0
0.001 0 0
0.001 0 0
0.001 0 0
0.001 0 0
0.001 0 0
0.001 0 0
0.001 0 0
0.001 0 0
0.001 0 0
0.001 0 0
0.001 0 0

