# vtk DataFile Version 4.2
vtk output
ASCII
DATASET UNSTRUCTURED_GRID

POINTS 58 double
0.014371 0.00901799 0.00401811
0.0143651 0.00598403 0.00812804
0.0143668 0.00735487 0.00693117
0.0143638 0.0016223 0.0040008
0.014367 0.00744904 0.00402093
0.0143684 0.00866016 0.00563321
0.0143645 0.00305605 0.00317905
0.014367 0.00159327 0.00239473
0.0143726 0.00865518 0.00245185
0.0143626 0.00162148 0.0056387
0.0143658 0.00704154 0.00559939
0.0143704 0.00879817 0.007339
0.0143687 0.00712902 0.00245765
0.0143639 0.0015519 0.007301
0.0143662 0.00447785 0.00236927
0.0143643 0.00594991 0.00648211
0.0143622 0.00320418 0.00673198
0.0143691 0.00769267 0.00840027
0.0143661 0.00592064 0.00319114
0.0143639 0.0041983 0.00831162
0.0143688 0.00289233 0.00137698
0.0143705 0.00437606 0.000961539
0.014364 0.00450901 0.0039911
0.0143627 0.00470104 0.00703423
0.0143647 0.00262882 0.00837943
0.0143623 0.00450933 0.0056526
0.0143644 0.00591997 0.00482129
0.0143705 0.00595072 0.00142157
0.0143733 0.00766248 0.00120912
0.0143768 0.00684091 -0.000162764
0.0143699 0.000190552 0.00316155
0.0143777 0.0101632 0.0064812
0.0143628 0.003067 0.0048212
0.0143677 0.000190004 0.00648337
0.0143782 0.008948 0.00105544
0.014368 0.000189972 0.00482192
0.0143755 0.00517901 -0.000161606
0.0143796 0.0101628 0.00315906
0.0143728 0.00684037 0.00980408
0.0143733 0.00894664 0.00858862
0.0143715 0.00140849 0.00105548
0.0143712 0.00517755 0.00980467
0.0143667 0.00140699 0.00858935
0.0143752 0.00351633 -0.000161318
0.0143697 0.00351429 0.0098045
0.0143778 0.0101629 0.00482148
0.0143736 0.000190417 0.00150041
0.0143813 0.00850379 -0.000163379
0.0143692 0.000189621 0.00814524
0.0143835 0.0101647 0.00150023
0.0143791 0.0101634 0.00814357
0.0143764 0.00850074 0.00980503
0.0143705 0.00185307 0.00980574
0.0143764 0.00185515 -0.000162144
0.0143822 0.0101651 0.00980645
0.0143885 0.0101657 -0.000164661
0.0143728 0.000188442 0.00980833
0.0143793 0.000190141 -0.000163721

CELLS 58 116
1 0
1 1
1 2
1 3
1 4
1 5
1 6
1 7
1 8
1 9
1 10
1 11
1 12
1 13
1 14
1 15
1 16
1 17
1 18
1 19
1 20
1 21
1 22
1 23
1 24
1 25
1 26
1 27
1 28
1 29
1 30
1 31
1 32
1 33
1 34
1 35
1 36
1 37
1 38
1 39
1 40
1 41
1 42
1 43
1 44
1 45
1 46
1 47
1 48
1 49
1 50
1 51
1 52
1 53
1 54
1 55
1 56
1 57

CELL_TYPES 58
1
1
1
1
1
1
1
1
1
1
1
1
1
1
1
1
1
1
1
1
1
1
1
1
1
1
1
1
1
1
1
1
1
1
1
1
1
1
1
1
1
1
1
1
1
1
1
1
1
1
1
1
1
1
1
1
1
1

POINT_DATA 58
FIELD FieldData 3

ExternalForceID_(#) 1 58 int
0
1
2
3
4
5
6
7
8
9
10
11
12
13
14
15
16
17
18
19
20
21
22
23
24
25
26
27
28
29
30
31
32
33
34
35
36
37
38
39
40
41
42
43
44
45
46
47
48
49
50
51
52
53
54
55
56
57

ExternalForceType_(0/1/2/3/4) 1 58 int
3
3
3
3
3
3
3
3
3
3
3
3
3
3
3
3
3
3
3
3
3
3
3
3
3
3
3
3
3
3
3
3
3
3
3
3
3
3
3
3
3
3
3
3
3
3
3
3
3
3
3
3
3
3
3
3
3
3

ExternalForce_(N) 3 58 double
0.001 0 0
0.001 0 0
0.001 0 0
0.001 0 0
0.001 0 0
0.001 0 0
0.001 0 0
0.001 0 0
0.001 0 0
0.001 0 0
0.001 0 0
0.001 0 0
0.001 0 0
0.001 0 0
0.001 0 0
0.001 0 0
0.001 0 0
0.001 0 0
0.001 0 0
0.001 0 0
0.001 0 0
0.001 0 0
0.001 0 0
0.001 0 0
0.001 0 0
0.001 0 0
0.001 0 0
0.001 0 0
0.001 0 0
0.001 0 0
0.001 0 0
0.001 0 0
0.001 0 0
0.001 0 0
0.001 0 0
0.001 0 0
0.001 0 0
0.001 0 0
0.001 0 0
0.001 0 0
0.001 0 0
0.001 0 0
0.001 0 0
0.001 0 0
0.001 0 0
0.001 0 0
0.001 0 0
0.001 0 0
0.001 0 0
0.001 0 0
0.001 0 0
0.001 0 0
0.001 0 0
0.001 0 0
0.001 0 0
0.001 0 0
0.001 0 0
0.001 0 0

