# vtk DataFile Version 4.2
vtk output
ASCII
DATASET UNSTRUCTURED_GRID

POINTS 58 double
0.0131442 0.00898046 0.00408337
0.0131403 0.00594146 0.0082061
0.0131406 0.00731498 0.00700616
0.0131514 0.00157349 0.00406509
0.0131444 0.00741043 0.00408617
0.0131408 0.00862204 0.00570398
0.0131506 0.00300897 0.00324068
0.0131557 0.0015443 0.00245417
0.0131477 0.00861736 0.00251232
0.0131484 0.00157293 0.00570933
0.0131425 0.00700175 0.00566953
0.0131399 0.00876031 0.0074155
0.0131479 0.00709009 0.00251802
0.0131473 0.00150312 0.00737668
0.0131505 0.00443253 0.00242818
0.013142 0.00590681 0.00655552
0.0131441 0.00315689 0.0068063
0.0131399 0.0076528 0.00847933
0.0131477 0.00587703 0.003253
0.013142 0.00415219 0.00838989
0.0131561 0.00284519 0.00143299
0.0131553 0.00433072 0.0010166
0.0131473 0.00446404 0.00405633
0.0131417 0.0046561 0.00710969
0.013145 0.00258097 0.00845777
0.0131436 0.00446429 0.00572308
0.0131445 0.005876 0.00488928
0.0131526 0.00590768 0.00147773
0.0131515 0.00762433 0.00126474
0.013157 0.00680008 -0.000109302
0.0131592 0.000137389 0.00322296
0.0131438 0.010131 0.00655546
0.0131476 0.00301916 0.00488884
0.0131534 0.000137101 0.00655673
0.013153 0.00891145 0.00111113
0.0131558 0.000136976 0.00488954
0.0131585 0.0051352 -0.000108924
0.0131494 0.0101309 0.0032224
0.0131428 0.0067991 0.00988738
0.0131407 0.00890928 0.00866838
0.0131612 0.00135901 0.00111064
0.0131446 0.00513342 0.00988769
0.0131486 0.00135797 0.00866852
0.0131613 0.00346988 -0.000109042
0.013146 0.00346702 0.00988713
0.013146 0.010131 0.00488933
0.013164 0.000137643 0.00155676
0.0131569 0.00846694 -0.000110548
0.0131526 0.000137307 0.00822346
0.0131542 0.0101327 0.00155758
0.0131429 0.0101308 0.00822257
0.0131426 0.00846235 0.0098884
0.0131494 0.00180494 0.00988831
0.0131653 0.00180645 -0.000109864
0.0131442 0.010132 0.00988942
0.0131596 0.0101337 -0.000110908
0.0131543 0.000136771 0.00989068
0.0131707 0.00013709 -0.000111092

CELLS 58 116
1 0
1 1
1 2
1 3
1 4
1 5
1 6
1 7
1 8
1 9
1 10
1 11
1 12
1 13
1 14
1 15
1 16
1 17
1 18
1 19
1 20
1 21
1 22
1 23
1 24
1 25
1 26
1 27
1 28
1 29
1 30
1 31
1 32
1 33
1 34
1 35
1 36
1 37
1 38
1 39
1 40
1 41
1 42
1 43
1 44
1 45
1 46
1 47
1 48
1 49
1 50
1 51
1 52
1 53
1 54
1 55
1 56
1 57

CELL_TYPES 58
1
1
1
1
1
1
1
1
1
1
1
1
1
1
1
1
1
1
1
1
1
1
1
1
1
1
1
1
1
1
1
1
1
1
1
1
1
1
1
1
1
1
1
1
1
1
1
1
1
1
1
1
1
1
1
1
1
1

POINT_DATA 58
FIELD FieldData 3

ExternalForceID_(#) 1 58 int
0
1
2
3
4
5
6
7
8
9
10
11
12
13
14
15
16
17
18
19
20
21
22
23
24
25
26
27
28
29
30
31
32
33
34
35
36
37
38
39
40
41
42
43
44
45
46
47
48
49
50
51
52
53
54
55
56
57

ExternalForceType_(0/1/2/3/4) 1 58 int
3
3
3
3
3
3
3
3
3
3
3
3
3
3
3
3
3
3
3
3
3
3
3
3
3
3
3
3
3
3
3
3
3
3
3
3
3
3
3
3
3
3
3
3
3
3
3
3
3
3
3
3
3
3
3
3
3
3

ExternalForce_(N) 3 58 double
0.001 0 0
0.001 0 0
0.001 0 0
0.001 0 0
0.001 0 0
0.001 0 0
0.001 0 0
0.001 0 0
0.001 0 0
0.001 0 0
0.001 0 0
0.001 0 0
0.001 0 0
0.001 0 0
0.001 0 0
0.001 0 0
0.001 0 0
0.001 0 0
0.001 0 0
0.001 0 0
0.001 0 0
0.001 0 0
0.001 0 0
0.001 0 0
0.001 0 0
0.001 0 0
0.001 0 0
0.001 0 0
0.001 0 0
0.001 0 0
0.001 0 0
0.001 0 0
0.001 0 0
0.001 0 0
0.001 0 0
0.001 0 0
0.001 0 0
0.001 0 0
0.001 0 0
0.001 0 0
0.001 0 0
0.001 0 0
0.001 0 0
0.001 0 0
0.001 0 0
0.001 0 0
0.001 0 0
0.001 0 0
0.001 0 0
0.001 0 0
0.001 0 0
0.001 0 0
0.001 0 0
0.001 0 0
0.001 0 0
0.001 0 0
0.001 0 0
0.001 0 0

