# vtk DataFile Version 4.2
vtk output
ASCII
DATASET UNSTRUCTURED_GRID

POINTS 58 double
0.0143672 0.00902228 0.00401935
0.0143622 0.00598779 0.00813052
0.0143634 0.00735886 0.00693334
0.0143634 0.00162589 0.00400192
0.014364 0.00745317 0.00402215
0.0143646 0.00866434 0.00563499
0.0143636 0.00305967 0.0031799
0.0143668 0.00159689 0.00239534
0.0143691 0.00865944 0.00245258
0.014362 0.00162506 0.00564045
0.0143628 0.00704555 0.00560111
0.0143662 0.00880236 0.00734133
0.014366 0.00713315 0.00245837
0.0143631 0.00155545 0.00730325
0.0143648 0.00448153 0.00236986
0.0143617 0.00595365 0.00648414
0.0143607 0.00320771 0.00673409
0.0143653 0.00769665 0.00840285
0.0143639 0.00592439 0.00319202
0.0143618 0.00420184 0.00831413
0.0143681 0.002896 0.00137725
0.0143692 0.00437978 0.000961708
0.0143624 0.00451268 0.0039923
0.0143605 0.00470467 0.00703645
0.0143632 0.00263235 0.00838193
0.0143605 0.00451298 0.00565434
0.014362 0.00592367 0.00482277
0.0143684 0.00595455 0.00142187
0.0143704 0.0076667 0.00120937
0.0143744 0.00684493 -0.000162785
0.0143702 0.000193933 0.00316236
0.0143728 0.010168 0.00648332
0.0143617 0.00307053 0.00482265
0.0143674 0.000193344 0.0064854
0.0143746 0.00895242 0.00105571
0.014368 0.000193327 0.00482336
0.0143738 0.00518284 -0.000161705
0.0143751 0.0101677 0.0031601
0.0143691 0.00684422 0.00980699
0.0143688 0.00895088 0.00859125
0.0143715 0.00141213 0.00105564
0.0143683 0.00518121 0.00980757
0.0143657 0.00141054 0.00859196
0.0143743 0.00352004 -0.000161466
0.0143676 0.00351777 0.00980737
0.0143732 0.0101678 0.00482298
0.014374 0.000193878 0.00150068
0.014378 0.00850819 -0.000163421
0.0143687 0.000193013 0.00814777
0.0143792 0.0101696 0.00150067
0.0143739 0.0101682 0.00814612
0.0143719 0.00850488 0.00980795
0.014369 0.00185667 0.00980863
0.0143762 0.00185884 -0.000162307
0.0143768 0.0101698 0.0098093
0.0143842 0.0101706 -0.000164585
0.0143721 0.000191892 0.00981124
0.0143798 0.000193629 -0.00016388

CELLS 58 116
1 0
1 1
1 2
1 3
1 4
1 5
1 6
1 7
1 8
1 9
1 10
1 11
1 12
1 13
1 14
1 15
1 16
1 17
1 18
1 19
1 20
1 21
1 22
1 23
1 24
1 25
1 26
1 27
1 28
1 29
1 30
1 31
1 32
1 33
1 34
1 35
1 36
1 37
1 38
1 39
1 40
1 41
1 42
1 43
1 44
1 45
1 46
1 47
1 48
1 49
1 50
1 51
1 52
1 53
1 54
1 55
1 56
1 57

CELL_TYPES 58
1
1
1
1
1
1
1
1
1
1
1
1
1
1
1
1
1
1
1
1
1
1
1
1
1
1
1
1
1
1
1
1
1
1
1
1
1
1
1
1
1
1
1
1
1
1
1
1
1
1
1
1
1
1
1
1
1
1

POINT_DATA 58
FIELD FieldData 3

ExternalForceID_(#) 1 58 int
0
1
2
3
4
5
6
7
8
9
10
11
12
13
14
15
16
17
18
19
20
21
22
23
24
25
26
27
28
29
30
31
32
33
34
35
36
37
38
39
40
41
42
43
44
45
46
47
48
49
50
51
52
53
54
55
56
57

ExternalForceType_(0/1/2/3/4) 1 58 int
3
3
3
3
3
3
3
3
3
3
3
3
3
3
3
3
3
3
3
3
3
3
3
3
3
3
3
3
3
3
3
3
3
3
3
3
3
3
3
3
3
3
3
3
3
3
3
3
3
3
3
3
3
3
3
3
3
3

ExternalForce_(N) 3 58 double
0.001 0 0
0.001 0 0
0.001 0 0
0.001 0 0
0.001 0 0
0.001 0 0
0.001 0 0
0.001 0 0
0.001 0 0
0.001 0 0
0.001 0 0
0.001 0 0
0.001 0 0
0.001 0 0
0.001 0 0
0.001 0 0
0.001 0 0
0.001 0 0
0.001 0 0
0.001 0 0
0.001 0 0
0.001 0 0
0.001 0 0
0.001 0 0
0.001 0 0
0.001 0 0
0.001 0 0
0.001 0 0
0.001 0 0
0.001 0 0
0.001 0 0
0.001 0 0
0.001 0 0
0.001 0 0
0.001 0 0
0.001 0 0
0.001 0 0
0.001 0 0
0.001 0 0
0.001 0 0
0.001 0 0
0.001 0 0
0.001 0 0
0.001 0 0
0.001 0 0
0.001 0 0
0.001 0 0
0.001 0 0
0.001 0 0
0.001 0 0
0.001 0 0
0.001 0 0
0.001 0 0
0.001 0 0
0.001 0 0
0.001 0 0
0.001 0 0
0.001 0 0

