# vtk DataFile Version 4.2
vtk output
ASCII
DATASET UNSTRUCTURED_GRID

POINTS 58 double
0.0143723 0.00902266 0.00401106
0.0143712 0.00598866 0.00812083
0.0143712 0.00735949 0.00692399
0.0143688 0.0016272 0.00399373
0.0143691 0.00745364 0.00401388
0.0143712 0.00866481 0.0056261
0.0143682 0.00306081 0.00317198
0.0143708 0.00159817 0.00238766
0.0143729 0.00865982 0.00244472
0.0143689 0.00162639 0.00563163
0.0143694 0.00704613 0.00559229
0.0143744 0.00880281 0.0073318
0.0143698 0.00713358 0.00245056
0.0143716 0.00155684 0.00729389
0.0143686 0.00448254 0.00236223
0.0143691 0.00595453 0.00647499
0.0143686 0.00320892 0.00672487
0.0143745 0.0076973 0.00839306
0.0143683 0.00592525 0.0031841
0.014371 0.00420297 0.00830445
0.0143712 0.00289713 0.00136993
0.0143718 0.00438075 0.000954456
0.0143676 0.00451367 0.00398403
0.0143685 0.00470569 0.0070271
0.0143727 0.00263367 0.00837227
0.0143672 0.00451399 0.0056455
0.0143679 0.00592458 0.0048142
0.0143713 0.00595532 0.00141449
0.0143732 0.00766703 0.001202
0.0143761 0.00684549 -0.000169999
0.0143751 0.0001955 0.00315447
0.0143804 0.010168 0.00647406
0.0143678 0.00307173 0.00481411
0.0143753 0.000194944 0.00647633
0.0143773 0.00895263 0.00104829
0.0143744 0.000194897 0.00481485
0.0143756 0.00518361 -0.000168818
0.0143797 0.0101675 0.00315196
0.0143797 0.00684499 0.00979679
0.0143782 0.00895136 0.00858135
0.0143744 0.00141343 0.00104841
0.0143789 0.00518226 0.00979741
0.0143754 0.00141196 0.00858221
0.0143761 0.00352108 -0.000168489
0.0143783 0.00351903 0.00979727
0.0143792 0.0101677 0.00481438
0.0143774 0.000195396 0.00149332
0.0143797 0.00850836 -0.000170595
0.0143782 0.000194621 0.00813813
0.0143823 0.0101694 0.00149306
0.0143831 0.0101682 0.00813625
0.0143825 0.00850548 0.00979771
0.0143799 0.00185804 0.00979854
0.0143782 0.00186005 -0.000169294
0.0143874 0.01017 0.00979906
0.014386 0.0101704 -0.000171901
0.0143831 0.000193443 0.00980115
0.0143818 0.000195199 -0.000170887

CELLS 58 116
1 0
1 1
1 2
1 3
1 4
1 5
1 6
1 7
1 8
1 9
1 10
1 11
1 12
1 13
1 14
1 15
1 16
1 17
1 18
1 19
1 20
1 21
1 22
1 23
1 24
1 25
1 26
1 27
1 28
1 29
1 30
1 31
1 32
1 33
1 34
1 35
1 36
1 37
1 38
1 39
1 40
1 41
1 42
1 43
1 44
1 45
1 46
1 47
1 48
1 49
1 50
1 51
1 52
1 53
1 54
1 55
1 56
1 57

CELL_TYPES 58
1
1
1
1
1
1
1
1
1
1
1
1
1
1
1
1
1
1
1
1
1
1
1
1
1
1
1
1
1
1
1
1
1
1
1
1
1
1
1
1
1
1
1
1
1
1
1
1
1
1
1
1
1
1
1
1
1
1

POINT_DATA 58
FIELD FieldData 3

ExternalForceID_(#) 1 58 int
0
1
2
3
4
5
6
7
8
9
10
11
12
13
14
15
16
17
18
19
20
21
22
23
24
25
26
27
28
29
30
31
32
33
34
35
36
37
38
39
40
41
42
43
44
45
46
47
48
49
50
51
52
53
54
55
56
57

ExternalForceType_(0/1/2/3/4) 1 58 int
3
3
3
3
3
3
3
3
3
3
3
3
3
3
3
3
3
3
3
3
3
3
3
3
3
3
3
3
3
3
3
3
3
3
3
3
3
3
3
3
3
3
3
3
3
3
3
3
3
3
3
3
3
3
3
3
3
3

ExternalForce_(N) 3 58 double
0.001 0 0
0.001 0 0
0.001 0 0
0.001 0 0
0.001 0 0
0.001 0 0
0.001 0 0
0.001 0 0
0.001 0 0
0.001 0 0
0.001 0 0
0.001 0 0
0.001 0 0
0.001 0 0
0.001 0 0
0.001 0 0
0.001 0 0
0.001 0 0
0.001 0 0
0.001 0 0
0.001 0 0
0.001 0 0
0.001 0 0
0.001 0 0
0.001 0 0
0.001 0 0
0.001 0 0
0.001 0 0
0.001 0 0
0.001 0 0
0.001 0 0
0.001 0 0
0.001 0 0
0.001 0 0
0.001 0 0
0.001 0 0
0.001 0 0
0.001 0 0
0.001 0 0
0.001 0 0
0.001 0 0
0.001 0 0
0.001 0 0
0.001 0 0
0.001 0 0
0.001 0 0
0.001 0 0
0.001 0 0
0.001 0 0
0.001 0 0
0.001 0 0
0.001 0 0
0.001 0 0
0.001 0 0
0.001 0 0
0.001 0 0
0.001 0 0
0.001 0 0

