# vtk DataFile Version 4.2
vtk output
ASCII
DATASET UNSTRUCTURED_GRID

POINTS 58 double
0.012937 0.00897869 0.00408865
0.0129384 0.00594042 0.00820938
0.0129367 0.00731353 0.00700995
0.0129521 0.00157409 0.00407018
0.0129388 0.00740883 0.00409139
0.0129348 0.00862033 0.00570845
0.0129493 0.003009 0.00324615
0.0129557 0.00154494 0.0024599
0.0129402 0.00861566 0.00251814
0.0129499 0.0015735 0.00571361
0.0129381 0.00700029 0.00567404
0.0129348 0.00875855 0.00741914
0.0129418 0.00708853 0.00252383
0.0129499 0.00150376 0.00738026
0.0129472 0.00443207 0.00243408
0.0129392 0.00590581 0.00655954
0.0129445 0.00315685 0.00681014
0.0129365 0.00765131 0.00848254
0.0129432 0.00587614 0.00325858
0.0129423 0.00415179 0.0083931
0.0129542 0.00284532 0.00143922
0.0129516 0.00433032 0.00102295
0.0129448 0.00446352 0.00406143
0.0129406 0.00465549 0.00711341
0.0129471 0.00258122 0.00846093
0.012942 0.00446375 0.00572743
0.0129408 0.00587511 0.00489406
0.0129474 0.00590675 0.001484
0.0129444 0.00762265 0.0012711
0.0129503 0.00679881 -0.000102751
0.0129613 0.000138814 0.00322837
0.0129371 0.0101287 0.00655951
0.0129471 0.00301918 0.00489353
0.0129572 0.00013848 0.00656064
0.0129445 0.00890962 0.00111752
0.0129587 0.000138354 0.00489416
0.0129536 0.00513448 -0.000102352
0.0129408 0.0101286 0.00322799
0.0129412 0.00679782 0.00988988
0.0129362 0.00890755 0.00867146
0.0129609 0.0013598 0.00111691
0.0129449 0.00513271 0.00989019
0.0129522 0.00135871 0.00867159
0.0129582 0.00346979 -0.000102473
0.012948 0.00346693 0.00988968
0.0129383 0.0101287 0.00489426
0.0129653 0.000139085 0.0015628
0.0129485 0.00846514 -0.000103824
0.0129574 0.000138701 0.00822672
0.0129449 0.0101305 0.0015638
0.0129372 0.0101286 0.00822578
0.0129394 0.00846078 0.00989089
0.0129533 0.00180553 0.00989087
0.0129641 0.00180706 -0.000103314
0.0129393 0.0101301 0.00989191
0.0129497 0.0101314 -0.00010422
0.0129601 0.000138138 0.00989332
0.0129714 0.000138662 -0.000104665

CELLS 58 116
1 0
1 1
1 2
1 3
1 4
1 5
1 6
1 7
1 8
1 9
1 10
1 11
1 12
1 13
1 14
1 15
1 16
1 17
1 18
1 19
1 20
1 21
1 22
1 23
1 24
1 25
1 26
1 27
1 28
1 29
1 30
1 31
1 32
1 33
1 34
1 35
1 36
1 37
1 38
1 39
1 40
1 41
1 42
1 43
1 44
1 45
1 46
1 47
1 48
1 49
1 50
1 51
1 52
1 53
1 54
1 55
1 56
1 57

CELL_TYPES 58
1
1
1
1
1
1
1
1
1
1
1
1
1
1
1
1
1
1
1
1
1
1
1
1
1
1
1
1
1
1
1
1
1
1
1
1
1
1
1
1
1
1
1
1
1
1
1
1
1
1
1
1
1
1
1
1
1
1

POINT_DATA 58
FIELD FieldData 3

ExternalForceID_(#) 1 58 int
0
1
2
3
4
5
6
7
8
9
10
11
12
13
14
15
16
17
18
19
20
21
22
23
24
25
26
27
28
29
30
31
32
33
34
35
36
37
38
39
40
41
42
43
44
45
46
47
48
49
50
51
52
53
54
55
56
57

ExternalForceType_(0/1/2/3/4) 1 58 int
3
3
3
3
3
3
3
3
3
3
3
3
3
3
3
3
3
3
3
3
3
3
3
3
3
3
3
3
3
3
3
3
3
3
3
3
3
3
3
3
3
3
3
3
3
3
3
3
3
3
3
3
3
3
3
3
3
3

ExternalForce_(N) 3 58 double
0.001 0 0
0.001 0 0
0.001 0 0
0.001 0 0
0.001 0 0
0.001 0 0
0.001 0 0
0.001 0 0
0.001 0 0
0.001 0 0
0.001 0 0
0.001 0 0
0.001 0 0
0.001 0 0
0.001 0 0
0.001 0 0
0.001 0 0
0.001 0 0
0.001 0 0
0.001 0 0
0.001 0 0
0.001 0 0
0.001 0 0
0.001 0 0
0.001 0 0
0.001 0 0
0.001 0 0
0.001 0 0
0.001 0 0
0.001 0 0
0.001 0 0
0.001 0 0
0.001 0 0
0.001 0 0
0.001 0 0
0.001 0 0
0.001 0 0
0.001 0 0
0.001 0 0
0.001 0 0
0.001 0 0
0.001 0 0
0.001 0 0
0.001 0 0
0.001 0 0
0.001 0 0
0.001 0 0
0.001 0 0
0.001 0 0
0.001 0 0
0.001 0 0
0.001 0 0
0.001 0 0
0.001 0 0
0.001 0 0
0.001 0 0
0.001 0 0
0.001 0 0

