# vtk DataFile Version 4.2
vtk output
ASCII
DATASET UNSTRUCTURED_GRID

POINTS 58 double
0.0142615 0.00901481 0.00403125
0.0142518 0.00597847 0.00814731
0.0142547 0.00735056 0.00694893
0.0142543 0.0016134 0.00401377
0.014258 0.00744531 0.00403409
0.0142575 0.00865669 0.00564894
0.014256 0.0030482 0.00319078
0.0142587 0.0015843 0.00240549
0.0142645 0.00865185 0.00246289
0.0142515 0.00161266 0.00565453
0.0142554 0.00703729 0.00561487
0.0142575 0.00879482 0.00735742
0.014261 0.00712518 0.00246865
0.0142509 0.00154293 0.00731916
0.0142585 0.00447098 0.00237971
0.0142529 0.00594417 0.00649912
0.0142502 0.00319628 0.00674946
0.0142552 0.00768839 0.00841995
0.014258 0.0059147 0.00320284
0.0142502 0.00419106 0.00833103
0.0142616 0.00288439 0.00138615
0.0142636 0.00436917 0.00097027
0.014255 0.00450228 0.00400436
0.0142505 0.00469437 0.0070522
0.0142507 0.00262048 0.00839889
0.0142517 0.00450258 0.00566833
0.0142548 0.0059139 0.00483578
0.0142635 0.00594503 0.00143076
0.0142663 0.00765903 0.00121803
0.0142706 0.00683624 -0.000154742
0.0142603 0.000179515 0.00317326
0.0142648 0.0101621 0.00649848
0.0142528 0.00305888 0.00483566
0.0142549 0.000179062 0.00650046
0.0142708 0.00894523 0.00106437
0.0142569 0.000179013 0.00483642
0.0142691 0.0051729 -0.000153856
0.01427 0.0101619 0.00317128
0.0142571 0.00683543 0.00982581
0.0142589 0.00894341 0.00860865
0.0142642 0.00139924 0.00106432
0.0142555 0.00517119 0.0098263
0.0142522 0.00139786 0.00860919
0.0142687 0.00350881 -0.000153707
0.0142539 0.00350639 0.00982596
0.0142667 0.010162 0.00483582
0.0142653 0.000179513 0.00150985
0.0142745 0.00850092 -0.000155702
0.0142546 0.00017887 0.0081646
0.0142751 0.0101638 0.00150988
0.0142644 0.0101621 0.00816323
0.0142605 0.00849701 0.00982679
0.0142544 0.00184437 0.00982718
0.0142696 0.00184632 -0.000154509
0.0142658 0.0101635 0.00982807
0.0142811 0.0101649 -0.000156611
0.0142564 0.000177942 0.00982966
0.0142722 0.000179033 -0.000155849

CELLS 58 116
1 0
1 1
1 2
1 3
1 4
1 5
1 6
1 7
1 8
1 9
1 10
1 11
1 12
1 13
1 14
1 15
1 16
1 17
1 18
1 19
1 20
1 21
1 22
1 23
1 24
1 25
1 26
1 27
1 28
1 29
1 30
1 31
1 32
1 33
1 34
1 35
1 36
1 37
1 38
1 39
1 40
1 41
1 42
1 43
1 44
1 45
1 46
1 47
1 48
1 49
1 50
1 51
1 52
1 53
1 54
1 55
1 56
1 57

CELL_TYPES 58
1
1
1
1
1
1
1
1
1
1
1
1
1
1
1
1
1
1
1
1
1
1
1
1
1
1
1
1
1
1
1
1
1
1
1
1
1
1
1
1
1
1
1
1
1
1
1
1
1
1
1
1
1
1
1
1
1
1

POINT_DATA 58
FIELD FieldData 3

ExternalForceID_(#) 1 58 int
0
1
2
3
4
5
6
7
8
9
10
11
12
13
14
15
16
17
18
19
20
21
22
23
24
25
26
27
28
29
30
31
32
33
34
35
36
37
38
39
40
41
42
43
44
45
46
47
48
49
50
51
52
53
54
55
56
57

ExternalForceType_(0/1/2/3/4) 1 58 int
3
3
3
3
3
3
3
3
3
3
3
3
3
3
3
3
3
3
3
3
3
3
3
3
3
3
3
3
3
3
3
3
3
3
3
3
3
3
3
3
3
3
3
3
3
3
3
3
3
3
3
3
3
3
3
3
3
3

ExternalForce_(N) 3 58 double
0.001 0 0
0.001 0 0
0.001 0 0
0.001 0 0
0.001 0 0
0.001 0 0
0.001 0 0
0.001 0 0
0.001 0 0
0.001 0 0
0.001 0 0
0.001 0 0
0.001 0 0
0.001 0 0
0.001 0 0
0.001 0 0
0.001 0 0
0.001 0 0
0.001 0 0
0.001 0 0
0.001 0 0
0.001 0 0
0.001 0 0
0.001 0 0
0.001 0 0
0.001 0 0
0.001 0 0
0.001 0 0
0.001 0 0
0.001 0 0
0.001 0 0
0.001 0 0
0.001 0 0
0.001 0 0
0.001 0 0
0.001 0 0
0.001 0 0
0.001 0 0
0.001 0 0
0.001 0 0
0.001 0 0
0.001 0 0
0.001 0 0
0.001 0 0
0.001 0 0
0.001 0 0
0.001 0 0
0.001 0 0
0.001 0 0
0.001 0 0
0.001 0 0
0.001 0 0
0.001 0 0
0.001 0 0
0.001 0 0
0.001 0 0
0.001 0 0
0.001 0 0

