# vtk DataFile Version 4.2
vtk output
ASCII
DATASET UNSTRUCTURED_GRID

POINTS 58 double
0.0143703 0.00901935 0.00401794
0.014365 0.00598538 0.00812792
0.0143664 0.00735621 0.00693103
0.0143642 0.00162378 0.0040006
0.0143666 0.00745039 0.00402075
0.0143678 0.0086615 0.00563306
0.0143648 0.00305749 0.00317885
0.0143674 0.00159477 0.00239452
0.014372 0.00865654 0.00245166
0.0143631 0.00162295 0.00563853
0.0143654 0.00704289 0.00559924
0.0143698 0.00879951 0.00733888
0.0143683 0.00713039 0.00245746
0.0143644 0.00155337 0.00730086
0.0143662 0.00447926 0.00236908
0.0143641 0.00595128 0.00648196
0.0143624 0.0032056 0.00673183
0.0143687 0.00769401 0.00840017
0.0143658 0.00592202 0.00319095
0.014364 0.00419969 0.0083115
0.014369 0.00289379 0.00137677
0.0143705 0.00437748 0.000961335
0.014364 0.0045104 0.00399091
0.0143627 0.00470242 0.00703409
0.0143651 0.00263026 0.0083793
0.0143624 0.00451073 0.00565244
0.0143642 0.00592135 0.00482111
0.0143702 0.00595211 0.00142137
0.0143728 0.00766385 0.00120893
0.0143764 0.00684229 -0.00016294
0.0143706 0.000192079 0.00316134
0.0143769 0.0101645 0.00648107
0.014363 0.00306843 0.00482102
0.0143684 0.000191519 0.00648322
0.0143775 0.00894937 0.00105525
0.0143687 0.00019149 0.00482173
0.0143754 0.00518042 -0.000161791
0.0143787 0.0101641 0.00315889
0.0143726 0.00684171 0.00980399
0.0143727 0.00894798 0.00858852
0.014372 0.00141 0.00105526
0.0143712 0.00517892 0.00980458
0.0143673 0.00140847 0.00858924
0.0143753 0.00351778 -0.000161514
0.01437 0.00351569 0.00980441
0.014377 0.0101643 0.00482132
0.0143743 0.000191957 0.00150019
0.0143806 0.00850516 -0.000163544
0.01437 0.000191143 0.00814513
0.0143826 0.0101661 0.00150005
0.0143783 0.0101648 0.00814346
0.0143759 0.00850208 0.00980494
0.014371 0.00185454 0.00980565
0.0143768 0.00185665 -0.000162348
0.0143814 0.0101664 0.00980636
0.0143875 0.010167 -0.000164817
0.0143736 0.000189971 0.00980825
0.0143799 0.000191692 -0.000163937

CELLS 58 116
1 0
1 1
1 2
1 3
1 4
1 5
1 6
1 7
1 8
1 9
1 10
1 11
1 12
1 13
1 14
1 15
1 16
1 17
1 18
1 19
1 20
1 21
1 22
1 23
1 24
1 25
1 26
1 27
1 28
1 29
1 30
1 31
1 32
1 33
1 34
1 35
1 36
1 37
1 38
1 39
1 40
1 41
1 42
1 43
1 44
1 45
1 46
1 47
1 48
1 49
1 50
1 51
1 52
1 53
1 54
1 55
1 56
1 57

CELL_TYPES 58
1
1
1
1
1
1
1
1
1
1
1
1
1
1
1
1
1
1
1
1
1
1
1
1
1
1
1
1
1
1
1
1
1
1
1
1
1
1
1
1
1
1
1
1
1
1
1
1
1
1
1
1
1
1
1
1
1
1

POINT_DATA 58
FIELD FieldData 3

ExternalForceID_(#) 1 58 int
0
1
2
3
4
5
6
7
8
9
10
11
12
13
14
15
16
17
18
19
20
21
22
23
24
25
26
27
28
29
30
31
32
33
34
35
36
37
38
39
40
41
42
43
44
45
46
47
48
49
50
51
52
53
54
55
56
57

ExternalForceType_(0/1/2/3/4) 1 58 int
3
3
3
3
3
3
3
3
3
3
3
3
3
3
3
3
3
3
3
3
3
3
3
3
3
3
3
3
3
3
3
3
3
3
3
3
3
3
3
3
3
3
3
3
3
3
3
3
3
3
3
3
3
3
3
3
3
3

ExternalForce_(N) 3 58 double
0.001 0 0
0.001 0 0
0.001 0 0
0.001 0 0
0.001 0 0
0.001 0 0
0.001 0 0
0.001 0 0
0.001 0 0
0.001 0 0
0.001 0 0
0.001 0 0
0.001 0 0
0.001 0 0
0.001 0 0
0.001 0 0
0.001 0 0
0.001 0 0
0.001 0 0
0.001 0 0
0.001 0 0
0.001 0 0
0.001 0 0
0.001 0 0
0.001 0 0
0.001 0 0
0.001 0 0
0.001 0 0
0.001 0 0
0.001 0 0
0.001 0 0
0.001 0 0
0.001 0 0
0.001 0 0
0.001 0 0
0.001 0 0
0.001 0 0
0.001 0 0
0.001 0 0
0.001 0 0
0.001 0 0
0.001 0 0
0.001 0 0
0.001 0 0
0.001 0 0
0.001 0 0
0.001 0 0
0.001 0 0
0.001 0 0
0.001 0 0
0.001 0 0
0.001 0 0
0.001 0 0
0.001 0 0
0.001 0 0
0.001 0 0
0.001 0 0
0.001 0 0

