# vtk DataFile Version 4.2
vtk output
ASCII
DATASET UNSTRUCTURED_GRID

POINTS 58 double
0.0116458 0.00887524 0.00413113
0.0116403 0.00584711 0.00822753
0.0116425 0.00721526 0.0070342
0.0116232 0.00149094 0.00411335
0.0116373 0.00730784 0.00413372
0.0116449 0.0085184 0.00574065
0.011625 0.00292285 0.00329451
0.0116246 0.00146175 0.00251218
0.0116447 0.00851274 0.00256936
0.0116248 0.00149038 0.00574533
0.0116377 0.00690174 0.00570717
0.0116514 0.00865632 0.00744075
0.0116363 0.00698791 0.00257508
0.01163 0.00142135 0.00740247
0.0116282 0.00434261 0.00248736
0.0116357 0.00581307 0.00658658
0.011629 0.00307154 0.00683517
0.0116495 0.007553 0.00849905
0.0116315 0.00578347 0.0033068
0.0116361 0.00406466 0.00841064
0.0116273 0.00275885 0.0014976
0.0116315 0.00424056 0.00108313
0.0116279 0.00437383 0.0041037
0.0116328 0.00456616 0.00713667
0.0116349 0.00249713 0.00847826
0.0116291 0.00437448 0.00575957
0.0116323 0.00578341 0.00493122
0.0116345 0.00581285 0.00154229
0.0116415 0.0075204 0.00133056
0.0116427 0.00670089 -3.92872e-05
0.0116282 6.27697e-05 0.00327681
0.0116626 0.0100166 0.00658557
0.0116256 0.00293438 0.00493082
0.0116317 6.2792e-05 0.00658704
0.0116503 0.0088041 0.0011769
0.0116287 6.25688e-05 0.00493127
0.011638 0.0050418 -3.79322e-05
0.0116586 0.0100154 0.0032744
0.0116561 0.00670236 0.00989881
0.0116579 0.00880469 0.0086868
0.0116277 0.00127709 0.00117685
0.0116508 0.00504237 0.0098994
0.0116359 0.00127675 0.00868717
0.0116347 0.00338176 -3.75552e-05
0.0116462 0.00338218 0.00989941
0.0116593 0.0100158 0.00493195
0.01163 6.20668e-05 0.00162059
0.0116522 0.00836007 -3.92168e-05
0.0116371 6.22147e-05 0.00824391
0.0116608 0.010017 0.00162033
0.0116677 0.0100174 0.00824292
0.011664 0.00836009 0.00989968
0.0116444 0.00172192 0.00990043
0.0116332 0.00172262 -3.83396e-05
0.0116747 0.0100197 0.00990141
0.0116647 0.0100177 -4.09567e-05
0.0116446 6.06714e-05 0.00990263
0.0116341 6.16956e-05 -4.0173e-05

CELLS 58 116
1 0
1 1
1 2
1 3
1 4
1 5
1 6
1 7
1 8
1 9
1 10
1 11
1 12
1 13
1 14
1 15
1 16
1 17
1 18
1 19
1 20
1 21
1 22
1 23
1 24
1 25
1 26
1 27
1 28
1 29
1 30
1 31
1 32
1 33
1 34
1 35
1 36
1 37
1 38
1 39
1 40
1 41
1 42
1 43
1 44
1 45
1 46
1 47
1 48
1 49
1 50
1 51
1 52
1 53
1 54
1 55
1 56
1 57

CELL_TYPES 58
1
1
1
1
1
1
1
1
1
1
1
1
1
1
1
1
1
1
1
1
1
1
1
1
1
1
1
1
1
1
1
1
1
1
1
1
1
1
1
1
1
1
1
1
1
1
1
1
1
1
1
1
1
1
1
1
1
1

POINT_DATA 58
FIELD FieldData 3

ExternalForceID_(#) 1 58 int
0
1
2
3
4
5
6
7
8
9
10
11
12
13
14
15
16
17
18
19
20
21
22
23
24
25
26
27
28
29
30
31
32
33
34
35
36
37
38
39
40
41
42
43
44
45
46
47
48
49
50
51
52
53
54
55
56
57

ExternalForceType_(0/1/2/3/4) 1 58 int
3
3
3
3
3
3
3
3
3
3
3
3
3
3
3
3
3
3
3
3
3
3
3
3
3
3
3
3
3
3
3
3
3
3
3
3
3
3
3
3
3
3
3
3
3
3
3
3
3
3
3
3
3
3
3
3
3
3

ExternalForce_(N) 3 58 double
0.001 0 0
0.001 0 0
0.001 0 0
0.001 0 0
0.001 0 0
0.001 0 0
0.001 0 0
0.001 0 0
0.001 0 0
0.001 0 0
0.001 0 0
0.001 0 0
0.001 0 0
0.001 0 0
0.001 0 0
0.001 0 0
0.001 0 0
0.001 0 0
0.001 0 0
0.001 0 0
0.001 0 0
0.001 0 0
0.001 0 0
0.001 0 0
0.001 0 0
0.001 0 0
0.001 0 0
0.001 0 0
0.001 0 0
0.001 0 0
0.001 0 0
0.001 0 0
0.001 0 0
0.001 0 0
0.001 0 0
0.001 0 0
0.001 0 0
0.001 0 0
0.001 0 0
0.001 0 0
0.001 0 0
0.001 0 0
0.001 0 0
0.001 0 0
0.001 0 0
0.001 0 0
0.001 0 0
0.001 0 0
0.001 0 0
0.001 0 0
0.001 0 0
0.001 0 0
0.001 0 0
0.001 0 0
0.001 0 0
0.001 0 0
0.001 0 0
0.001 0 0

