# vtk DataFile Version 4.2
vtk output
ASCII
DATASET UNSTRUCTURED_GRID

POINTS 58 double
0.01437 0.00901958 0.0040164
0.0143654 0.00598563 0.00812633
0.0143666 0.00735645 0.00692945
0.0143642 0.0016241 0.00399907
0.0143663 0.00745061 0.00401921
0.0143678 0.00866174 0.0056315
0.0143645 0.00305777 0.00317732
0.0143671 0.00159509 0.002393
0.0143714 0.00865677 0.00245011
0.0143633 0.00162328 0.00563699
0.0143654 0.00704312 0.00559768
0.0143701 0.00879974 0.00733729
0.0143678 0.00713059 0.00245592
0.0143649 0.00155371 0.0072993
0.0143657 0.00447952 0.00236755
0.0143643 0.00595152 0.0064804
0.0143628 0.00320589 0.00673027
0.0143692 0.00769424 0.00839857
0.0143655 0.00592225 0.00318942
0.0143646 0.00419995 0.00830992
0.0143684 0.00289408 0.00137525
0.0143698 0.00437774 0.000959805
0.0143638 0.00451066 0.00398938
0.014363 0.00470268 0.00703252
0.0143657 0.00263057 0.00837773
0.0143625 0.00451098 0.00565089
0.0143641 0.00592158 0.00481957
0.0143695 0.00595233 0.00141984
0.014372 0.00766405 0.00120738
0.0143755 0.0068425 -0.000164513
0.0143704 0.000192439 0.00315982
0.014377 0.0101648 0.00647949
0.0143631 0.00306871 0.00481948
0.0143688 0.000191883 0.00648168
0.0143766 0.00894958 0.0010537
0.0143688 0.000191849 0.0048202
0.0143744 0.00518065 -0.000163355
0.0143782 0.0101644 0.00315733
0.0143733 0.00684195 0.00980237
0.0143732 0.00894823 0.0085869
0.0143714 0.00141033 0.00105374
0.014372 0.00517919 0.00980297
0.014368 0.00140882 0.00858767
0.0143745 0.00351805 -0.000163064
0.0143709 0.00351598 0.0098028
0.0143767 0.0101645 0.00481977
0.0143738 0.00019232 0.00149866
0.0143796 0.00850536 -0.000165116
0.0143707 0.000191516 0.00814356
0.0143818 0.0101663 0.00149848
0.0143787 0.010165 0.00814184
0.0143766 0.00850234 0.00980331
0.0143719 0.00185488 0.00980406
0.0143759 0.00185697 -0.000163892
0.0143821 0.0101667 0.0098047
0.0143865 0.0101673 -0.000166399
0.0143746 0.00019034 0.00980667
0.0143791 0.000192069 -0.000165485

CELLS 58 116
1 0
1 1
1 2
1 3
1 4
1 5
1 6
1 7
1 8
1 9
1 10
1 11
1 12
1 13
1 14
1 15
1 16
1 17
1 18
1 19
1 20
1 21
1 22
1 23
1 24
1 25
1 26
1 27
1 28
1 29
1 30
1 31
1 32
1 33
1 34
1 35
1 36
1 37
1 38
1 39
1 40
1 41
1 42
1 43
1 44
1 45
1 46
1 47
1 48
1 49
1 50
1 51
1 52
1 53
1 54
1 55
1 56
1 57

CELL_TYPES 58
1
1
1
1
1
1
1
1
1
1
1
1
1
1
1
1
1
1
1
1
1
1
1
1
1
1
1
1
1
1
1
1
1
1
1
1
1
1
1
1
1
1
1
1
1
1
1
1
1
1
1
1
1
1
1
1
1
1

POINT_DATA 58
FIELD FieldData 3

ExternalForceID_(#) 1 58 int
0
1
2
3
4
5
6
7
8
9
10
11
12
13
14
15
16
17
18
19
20
21
22
23
24
25
26
27
28
29
30
31
32
33
34
35
36
37
38
39
40
41
42
43
44
45
46
47
48
49
50
51
52
53
54
55
56
57

ExternalForceType_(0/1/2/3/4) 1 58 int
3
3
3
3
3
3
3
3
3
3
3
3
3
3
3
3
3
3
3
3
3
3
3
3
3
3
3
3
3
3
3
3
3
3
3
3
3
3
3
3
3
3
3
3
3
3
3
3
3
3
3
3
3
3
3
3
3
3

ExternalForce_(N) 3 58 double
0.001 0 0
0.001 0 0
0.001 0 0
0.001 0 0
0.001 0 0
0.001 0 0
0.001 0 0
0.001 0 0
0.001 0 0
0.001 0 0
0.001 0 0
0.001 0 0
0.001 0 0
0.001 0 0
0.001 0 0
0.001 0 0
0.001 0 0
0.001 0 0
0.001 0 0
0.001 0 0
0.001 0 0
0.001 0 0
0.001 0 0
0.001 0 0
0.001 0 0
0.001 0 0
0.001 0 0
0.001 0 0
0.001 0 0
0.001 0 0
0.001 0 0
0.001 0 0
0.001 0 0
0.001 0 0
0.001 0 0
0.001 0 0
0.001 0 0
0.001 0 0
0.001 0 0
0.001 0 0
0.001 0 0
0.001 0 0
0.001 0 0
0.001 0 0
0.001 0 0
0.001 0 0
0.001 0 0
0.001 0 0
0.001 0 0
0.001 0 0
0.001 0 0
0.001 0 0
0.001 0 0
0.001 0 0
0.001 0 0
0.001 0 0
0.001 0 0
0.001 0 0

