# vtk DataFile Version 4.2
vtk output
ASCII
DATASET UNSTRUCTURED_GRID

POINTS 58 double
0.0143707 0.00901832 0.00401677
0.0143656 0.00598436 0.00812664
0.014367 0.00735519 0.00692978
0.0143638 0.00162272 0.00399947
0.0143668 0.00744935 0.00401959
0.0143684 0.00866048 0.00563185
0.0143644 0.00305643 0.00317772
0.0143668 0.00159369 0.00239341
0.0143721 0.0086555 0.0024505
0.0143629 0.00162191 0.00563735
0.0143658 0.00704186 0.00559803
0.0143706 0.0087985 0.0073376
0.0143683 0.00712932 0.00245631
0.0143645 0.00155233 0.00729963
0.0143659 0.0044782 0.00236795
0.0143645 0.00595024 0.00648074
0.0143625 0.00320456 0.00673061
0.0143696 0.00769299 0.00839886
0.0143658 0.00592096 0.00318981
0.0143645 0.00419865 0.00831023
0.0143684 0.00289272 0.00137566
0.0143699 0.00437641 0.000960203
0.0143639 0.00450935 0.00398977
0.014363 0.00470138 0.00703286
0.0143654 0.00262922 0.00837804
0.0143625 0.00450968 0.00565125
0.0143643 0.0059203 0.00481994
0.0143699 0.00595103 0.00142023
0.0143727 0.00766278 0.00120777
0.014376 0.00684121 -0.000164147
0.0143699 0.000191016 0.00316022
0.0143777 0.0101636 0.00647982
0.0143629 0.00306738 0.00481986
0.0143681 0.000190469 0.00648203
0.0143774 0.00894831 0.00105408
0.0143683 0.000190433 0.00482058
0.0143747 0.00517932 -0.000162982
0.0143791 0.0101631 0.00315771
0.0143735 0.0068407 0.00980263
0.0143738 0.00894699 0.0085872
0.0143711 0.00140893 0.00105415
0.014372 0.00517791 0.00980323
0.0143675 0.00140743 0.00858796
0.0143745 0.0035167 -0.000162681
0.0143706 0.00351467 0.00980307
0.0143776 0.0101633 0.00482012
0.0143733 0.000190886 0.00149908
0.0143804 0.00850409 -0.000164758
0.01437 0.000190093 0.00814386
0.0143828 0.010165 0.00149887
0.0143794 0.0101638 0.00814214
0.0143771 0.00850109 0.00980357
0.0143714 0.0018535 0.00980432
0.0143758 0.00185556 -0.000163502
0.0143828 0.0101655 0.00980497
0.0143875 0.010166 -0.000166047
0.0143738 0.00018891 0.00980691
0.0143787 0.000190628 -0.000165083

CELLS 58 116
1 0
1 1
1 2
1 3
1 4
1 5
1 6
1 7
1 8
1 9
1 10
1 11
1 12
1 13
1 14
1 15
1 16
1 17
1 18
1 19
1 20
1 21
1 22
1 23
1 24
1 25
1 26
1 27
1 28
1 29
1 30
1 31
1 32
1 33
1 34
1 35
1 36
1 37
1 38
1 39
1 40
1 41
1 42
1 43
1 44
1 45
1 46
1 47
1 48
1 49
1 50
1 51
1 52
1 53
1 54
1 55
1 56
1 57

CELL_TYPES 58
1
1
1
1
1
1
1
1
1
1
1
1
1
1
1
1
1
1
1
1
1
1
1
1
1
1
1
1
1
1
1
1
1
1
1
1
1
1
1
1
1
1
1
1
1
1
1
1
1
1
1
1
1
1
1
1
1
1

POINT_DATA 58
FIELD FieldData 3

ExternalForceID_(#) 1 58 int
0
1
2
3
4
5
6
7
8
9
10
11
12
13
14
15
16
17
18
19
20
21
22
23
24
25
26
27
28
29
30
31
32
33
34
35
36
37
38
39
40
41
42
43
44
45
46
47
48
49
50
51
52
53
54
55
56
57

ExternalForceType_(0/1/2/3/4) 1 58 int
3
3
3
3
3
3
3
3
3
3
3
3
3
3
3
3
3
3
3
3
3
3
3
3
3
3
3
3
3
3
3
3
3
3
3
3
3
3
3
3
3
3
3
3
3
3
3
3
3
3
3
3
3
3
3
3
3
3

ExternalForce_(N) 3 58 double
0.001 0 0
0.001 0 0
0.001 0 0
0.001 0 0
0.001 0 0
0.001 0 0
0.001 0 0
0.001 0 0
0.001 0 0
0.001 0 0
0.001 0 0
0.001 0 0
0.001 0 0
0.001 0 0
0.001 0 0
0.001 0 0
0.001 0 0
0.001 0 0
0.001 0 0
0.001 0 0
0.001 0 0
0.001 0 0
0.001 0 0
0.001 0 0
0.001 0 0
0.001 0 0
0.001 0 0
0.001 0 0
0.001 0 0
0.001 0 0
0.001 0 0
0.001 0 0
0.001 0 0
0.001 0 0
0.001 0 0
0.001 0 0
0.001 0 0
0.001 0 0
0.001 0 0
0.001 0 0
0.001 0 0
0.001 0 0
0.001 0 0
0.001 0 0
0.001 0 0
0.001 0 0
0.001 0 0
0.001 0 0
0.001 0 0
0.001 0 0
0.001 0 0
0.001 0 0
0.001 0 0
0.001 0 0
0.001 0 0
0.001 0 0
0.001 0 0
0.001 0 0

