# vtk DataFile Version 4.2
vtk output
ASCII
DATASET UNSTRUCTURED_GRID

POINTS 58 double
0.0143708 0.00901856 0.00401897
0.0143647 0.00598459 0.00812898
0.0143664 0.00735543 0.00693209
0.0143641 0.0016229 0.00400164
0.014367 0.00744961 0.00402178
0.0143681 0.00866072 0.0056341
0.0143648 0.00305665 0.00317988
0.0143675 0.00159388 0.00239556
0.0143727 0.00865576 0.0024527
0.0143627 0.00162207 0.00563956
0.0143656 0.00704212 0.00560028
0.0143699 0.00879873 0.00733994
0.0143689 0.00712961 0.00245849
0.0143639 0.00155248 0.0073019
0.0143665 0.00447845 0.0023701
0.0143641 0.00595049 0.00648301
0.0143621 0.00320477 0.00673287
0.0143686 0.00769322 0.00840123
0.0143662 0.00592123 0.00319197
0.0143636 0.00419887 0.00831256
0.0143693 0.00289294 0.0013778
0.014371 0.00437666 0.000962368
0.0143641 0.00450959 0.00399195
0.0143625 0.00470162 0.00703514
0.0143645 0.0026294 0.00838036
0.0143623 0.00450992 0.00565348
0.0143643 0.00592056 0.00482215
0.0143708 0.00595132 0.0014224
0.0143735 0.00766308 0.00120996
0.0143773 0.00684151 -0.000161886
0.0143704 0.000191161 0.00316238
0.0143772 0.0101637 0.00648211
0.0143629 0.00306759 0.00482206
0.0143678 0.000190605 0.00648425
0.0143783 0.00894858 0.00105629
0.0143683 0.000190578 0.00482277
0.014376 0.00517962 -0.000160739
0.0143794 0.0101633 0.00315992
0.0143722 0.00684092 0.00980507
0.0143727 0.00894719 0.00858959
0.0143721 0.00140911 0.00105629
0.0143707 0.00517811 0.00980565
0.0143666 0.00140757 0.00859029
0.0143758 0.00351694 -0.000160467
0.0143693 0.00351486 0.00980547
0.0143775 0.0101634 0.00482236
0.0143743 0.000191033 0.00150123
0.0143816 0.00850438 -0.000162497
0.0143692 0.00019022 0.00814617
0.0143835 0.0101653 0.00150109
0.0143784 0.0101639 0.00814454
0.0143757 0.00850128 0.00980603
0.0143702 0.00185365 0.00980671
0.0143771 0.00185576 -0.000161302
0.0143814 0.0101656 0.00980745
0.0143887 0.0101663 -0.000163767
0.0143727 0.000189049 0.00980931
0.0143801 0.000190752 -0.000162885

CELLS 58 116
1 0
1 1
1 2
1 3
1 4
1 5
1 6
1 7
1 8
1 9
1 10
1 11
1 12
1 13
1 14
1 15
1 16
1 17
1 18
1 19
1 20
1 21
1 22
1 23
1 24
1 25
1 26
1 27
1 28
1 29
1 30
1 31
1 32
1 33
1 34
1 35
1 36
1 37
1 38
1 39
1 40
1 41
1 42
1 43
1 44
1 45
1 46
1 47
1 48
1 49
1 50
1 51
1 52
1 53
1 54
1 55
1 56
1 57

CELL_TYPES 58
1
1
1
1
1
1
1
1
1
1
1
1
1
1
1
1
1
1
1
1
1
1
1
1
1
1
1
1
1
1
1
1
1
1
1
1
1
1
1
1
1
1
1
1
1
1
1
1
1
1
1
1
1
1
1
1
1
1

POINT_DATA 58
FIELD FieldData 3

ExternalForceID_(#) 1 58 int
0
1
2
3
4
5
6
7
8
9
10
11
12
13
14
15
16
17
18
19
20
21
22
23
24
25
26
27
28
29
30
31
32
33
34
35
36
37
38
39
40
41
42
43
44
45
46
47
48
49
50
51
52
53
54
55
56
57

ExternalForceType_(0/1/2/3/4) 1 58 int
3
3
3
3
3
3
3
3
3
3
3
3
3
3
3
3
3
3
3
3
3
3
3
3
3
3
3
3
3
3
3
3
3
3
3
3
3
3
3
3
3
3
3
3
3
3
3
3
3
3
3
3
3
3
3
3
3
3

ExternalForce_(N) 3 58 double
0.001 0 0
0.001 0 0
0.001 0 0
0.001 0 0
0.001 0 0
0.001 0 0
0.001 0 0
0.001 0 0
0.001 0 0
0.001 0 0
0.001 0 0
0.001 0 0
0.001 0 0
0.001 0 0
0.001 0 0
0.001 0 0
0.001 0 0
0.001 0 0
0.001 0 0
0.001 0 0
0.001 0 0
0.001 0 0
0.001 0 0
0.001 0 0
0.001 0 0
0.001 0 0
0.001 0 0
0.001 0 0
0.001 0 0
0.001 0 0
0.001 0 0
0.001 0 0
0.001 0 0
0.001 0 0
0.001 0 0
0.001 0 0
0.001 0 0
0.001 0 0
0.001 0 0
0.001 0 0
0.001 0 0
0.001 0 0
0.001 0 0
0.001 0 0
0.001 0 0
0.001 0 0
0.001 0 0
0.001 0 0
0.001 0 0
0.001 0 0
0.001 0 0
0.001 0 0
0.001 0 0
0.001 0 0
0.001 0 0
0.001 0 0
0.001 0 0
0.001 0 0

