# vtk DataFile Version 4.2
vtk output
ASCII
DATASET UNSTRUCTURED_GRID

POINTS 58 double
0.0143703 0.00901905 0.00401671
0.0143654 0.0059851 0.00812664
0.0143667 0.00735592 0.00692976
0.014364 0.00162353 0.00399939
0.0143665 0.00745009 0.00401953
0.014368 0.00866121 0.00563181
0.0143645 0.00305721 0.00317764
0.014367 0.0015945 0.00239332
0.0143717 0.00865624 0.00245042
0.0143631 0.0016227 0.0056373
0.0143656 0.0070426 0.00559799
0.0143702 0.00879922 0.00733759
0.014368 0.00713007 0.00245623
0.0143647 0.00155313 0.00729961
0.0143658 0.00447897 0.00236787
0.0143644 0.00595099 0.00648071
0.0143626 0.00320533 0.00673058
0.0143692 0.00769372 0.00839887
0.0143656 0.00592172 0.00318973
0.0143644 0.00419941 0.00831023
0.0143685 0.00289351 0.00137557
0.0143699 0.00437719 0.000960122
0.0143638 0.00451011 0.00398969
0.014363 0.00470214 0.00703283
0.0143655 0.00263001 0.00837804
0.0143624 0.00451044 0.0056512
0.0143642 0.00592105 0.00481988
0.0143697 0.0059518 0.00142015
0.0143723 0.00766353 0.0012077
0.0143758 0.00684197 -0.000164197
0.0143702 0.000191841 0.00316014
0.0143772 0.0101643 0.0064798
0.014363 0.00306815 0.00481979
0.0143685 0.000191288 0.00648199
0.014377 0.00894905 0.00105401
0.0143686 0.000191254 0.00482052
0.0143746 0.0051801 -0.000163038
0.0143786 0.0101638 0.00315764
0.0143733 0.00684143 0.00980267
0.0143733 0.00894771 0.00858721
0.0143713 0.00140974 0.00105406
0.0143719 0.00517866 0.00980327
0.0143677 0.00140824 0.00858797
0.0143746 0.00351749 -0.000162746
0.0143706 0.00351543 0.00980311
0.0143771 0.010164 0.00482007
0.0143736 0.000191717 0.00149899
0.01438 0.00850483 -0.000164804
0.0143703 0.000190917 0.00814386
0.0143823 0.0101658 0.0014988
0.0143789 0.0101645 0.00814215
0.0143767 0.00850181 0.00980361
0.0143716 0.0018543 0.00980436
0.0143759 0.00185638 -0.000163573
0.0143822 0.0101662 0.00980501
0.014387 0.0101667 -0.000166089
0.0143742 0.00018974 0.00980696
0.014379 0.00019146 -0.00016516

CELLS 58 116
1 0
1 1
1 2
1 3
1 4
1 5
1 6
1 7
1 8
1 9
1 10
1 11
1 12
1 13
1 14
1 15
1 16
1 17
1 18
1 19
1 20
1 21
1 22
1 23
1 24
1 25
1 26
1 27
1 28
1 29
1 30
1 31
1 32
1 33
1 34
1 35
1 36
1 37
1 38
1 39
1 40
1 41
1 42
1 43
1 44
1 45
1 46
1 47
1 48
1 49
1 50
1 51
1 52
1 53
1 54
1 55
1 56
1 57

CELL_TYPES 58
1
1
1
1
1
1
1
1
1
1
1
1
1
1
1
1
1
1
1
1
1
1
1
1
1
1
1
1
1
1
1
1
1
1
1
1
1
1
1
1
1
1
1
1
1
1
1
1
1
1
1
1
1
1
1
1
1
1

POINT_DATA 58
FIELD FieldData 3

ExternalForceID_(#) 1 58 int
0
1
2
3
4
5
6
7
8
9
10
11
12
13
14
15
16
17
18
19
20
21
22
23
24
25
26
27
28
29
30
31
32
33
34
35
36
37
38
39
40
41
42
43
44
45
46
47
48
49
50
51
52
53
54
55
56
57

ExternalForceType_(0/1/2/3/4) 1 58 int
3
3
3
3
3
3
3
3
3
3
3
3
3
3
3
3
3
3
3
3
3
3
3
3
3
3
3
3
3
3
3
3
3
3
3
3
3
3
3
3
3
3
3
3
3
3
3
3
3
3
3
3
3
3
3
3
3
3

ExternalForce_(N) 3 58 double
0.001 0 0
0.001 0 0
0.001 0 0
0.001 0 0
0.001 0 0
0.001 0 0
0.001 0 0
0.001 0 0
0.001 0 0
0.001 0 0
0.001 0 0
0.001 0 0
0.001 0 0
0.001 0 0
0.001 0 0
0.001 0 0
0.001 0 0
0.001 0 0
0.001 0 0
0.001 0 0
0.001 0 0
0.001 0 0
0.001 0 0
0.001 0 0
0.001 0 0
0.001 0 0
0.001 0 0
0.001 0 0
0.001 0 0
0.001 0 0
0.001 0 0
0.001 0 0
0.001 0 0
0.001 0 0
0.001 0 0
0.001 0 0
0.001 0 0
0.001 0 0
0.001 0 0
0.001 0 0
0.001 0 0
0.001 0 0
0.001 0 0
0.001 0 0
0.001 0 0
0.001 0 0
0.001 0 0
0.001 0 0
0.001 0 0
0.001 0 0
0.001 0 0
0.001 0 0
0.001 0 0
0.001 0 0
0.001 0 0
0.001 0 0
0.001 0 0
0.001 0 0

