# vtk DataFile Version 4.2
vtk output
ASCII
DATASET UNSTRUCTURED_GRID

POINTS 58 double
0.0139423 0.00901374 0.0040263
0.0139462 0.00597514 0.00814647
0.0139446 0.00734845 0.00694711
0.0139447 0.00160638 0.00400863
0.0139413 0.00744362 0.00402923
0.0139426 0.00865545 0.0056458
0.0139428 0.0030422 0.00318464
0.0139452 0.00157709 0.00239863
0.013942 0.00865058 0.00245598
0.0139456 0.00160585 0.00565163
0.013943 0.00703507 0.00561152
0.013946 0.00879372 0.007356
0.013941 0.00712312 0.00246188
0.0139485 0.00153614 0.00731787
0.0139416 0.00446603 0.00237259
0.0139439 0.00594051 0.00649693
0.013945 0.00319032 0.00674766
0.0139477 0.00768641 0.00841942
0.0139415 0.00591071 0.00319679
0.0139472 0.00418585 0.00833037
0.0139441 0.00287831 0.00137808
0.0139433 0.00436406 0.000961692
0.0139422 0.00449751 0.00399949
0.0139442 0.00468972 0.00705073
0.0139494 0.00261435 0.00839833
0.0139427 0.00449781 0.0056652
0.0139422 0.0059098 0.0048318
0.0139425 0.00594116 0.00142253
0.0139422 0.0076573 0.00120943
0.0139442 0.00683335 -0.000164575
0.0139496 0.000169908 0.00316714
0.0139489 0.0101634 0.00649643
0.0139436 0.00305256 0.00483161
0.0139517 0.000169651 0.00649858
0.0139443 0.00894433 0.00105561
0.0139501 0.000169481 0.00483249
0.0139448 0.00516833 -0.00016381
0.0139465 0.010163 0.00316545
0.0139533 0.00683278 0.00982675
0.0139499 0.00894269 0.00860825
0.0139475 0.0013917 0.00105598
0.013954 0.00516718 0.0098272
0.0139527 0.0013909 0.00860893
0.0139464 0.00350306 -0.000163579
0.0139543 0.00350062 0.00982679
0.0139471 0.0101633 0.00483162
0.0139505 0.000170032 0.00150194
0.0139454 0.00849971 -0.000165863
0.0139549 0.000169859 0.00816406
0.0139475 0.0101648 0.00150167
0.013952 0.0101633 0.00816239
0.0139543 0.0084959 0.00982765
0.0139566 0.00183795 0.00982798
0.0139493 0.00183915 -0.000164206
0.0139571 0.0101648 0.00982862
0.0139493 0.0101656 -0.000166608
0.0139604 0.000169141 0.00983028
0.0139535 0.000169568 -0.000165279

CELLS 58 116
1 0
1 1
1 2
1 3
1 4
1 5
1 6
1 7
1 8
1 9
1 10
1 11
1 12
1 13
1 14
1 15
1 16
1 17
1 18
1 19
1 20
1 21
1 22
1 23
1 24
1 25
1 26
1 27
1 28
1 29
1 30
1 31
1 32
1 33
1 34
1 35
1 36
1 37
1 38
1 39
1 40
1 41
1 42
1 43
1 44
1 45
1 46
1 47
1 48
1 49
1 50
1 51
1 52
1 53
1 54
1 55
1 56
1 57

CELL_TYPES 58
1
1
1
1
1
1
1
1
1
1
1
1
1
1
1
1
1
1
1
1
1
1
1
1
1
1
1
1
1
1
1
1
1
1
1
1
1
1
1
1
1
1
1
1
1
1
1
1
1
1
1
1
1
1
1
1
1
1

POINT_DATA 58
FIELD FieldData 3

ExternalForceID_(#) 1 58 int
0
1
2
3
4
5
6
7
8
9
10
11
12
13
14
15
16
17
18
19
20
21
22
23
24
25
26
27
28
29
30
31
32
33
34
35
36
37
38
39
40
41
42
43
44
45
46
47
48
49
50
51
52
53
54
55
56
57

ExternalForceType_(0/1/2/3/4) 1 58 int
3
3
3
3
3
3
3
3
3
3
3
3
3
3
3
3
3
3
3
3
3
3
3
3
3
3
3
3
3
3
3
3
3
3
3
3
3
3
3
3
3
3
3
3
3
3
3
3
3
3
3
3
3
3
3
3
3
3

ExternalForce_(N) 3 58 double
0.001 0 0
0.001 0 0
0.001 0 0
0.001 0 0
0.001 0 0
0.001 0 0
0.001 0 0
0.001 0 0
0.001 0 0
0.001 0 0
0.001 0 0
0.001 0 0
0.001 0 0
0.001 0 0
0.001 0 0
0.001 0 0
0.001 0 0
0.001 0 0
0.001 0 0
0.001 0 0
0.001 0 0
0.001 0 0
0.001 0 0
0.001 0 0
0.001 0 0
0.001 0 0
0.001 0 0
0.001 0 0
0.001 0 0
0.001 0 0
0.001 0 0
0.001 0 0
0.001 0 0
0.001 0 0
0.001 0 0
0.001 0 0
0.001 0 0
0.001 0 0
0.001 0 0
0.001 0 0
0.001 0 0
0.001 0 0
0.001 0 0
0.001 0 0
0.001 0 0
0.001 0 0
0.001 0 0
0.001 0 0
0.001 0 0
0.001 0 0
0.001 0 0
0.001 0 0
0.001 0 0
0.001 0 0
0.001 0 0
0.001 0 0
0.001 0 0
0.001 0 0

