# vtk DataFile Version 4.2
vtk output
ASCII
DATASET UNSTRUCTURED_GRID

POINTS 58 double
0.0143715 0.00901963 0.00401569
0.0143672 0.0059857 0.00812558
0.0143683 0.00735652 0.00692871
0.0143656 0.00162409 0.00399838
0.0143678 0.00745068 0.0040185
0.0143694 0.0086618 0.00563076
0.0143659 0.00305779 0.00317663
0.0143684 0.00159506 0.00239233
0.0143728 0.00865682 0.00244942
0.0143648 0.00162327 0.00563626
0.014367 0.00704319 0.00559695
0.0143718 0.00879981 0.00733654
0.0143691 0.00713066 0.00245524
0.0143666 0.0015537 0.00729856
0.0143671 0.00447956 0.00236688
0.014366 0.00595159 0.00647966
0.0143644 0.00320592 0.00672953
0.0143709 0.00769432 0.00839782
0.0143669 0.00592232 0.00318873
0.0143663 0.00420001 0.00830917
0.0143697 0.00289409 0.0013746
0.0143711 0.00437777 0.000959168
0.0143652 0.00451071 0.00398867
0.0143647 0.00470274 0.00703178
0.0143674 0.00263059 0.00837698
0.014364 0.00451104 0.00565015
0.0143656 0.00592166 0.00481884
0.0143708 0.0059524 0.00141918
0.0143733 0.00766411 0.00120673
0.0143767 0.00684256 -0.000165124
0.0143718 0.000192363 0.00315914
0.0143786 0.0101648 0.00647874
0.0143645 0.00306873 0.00481876
0.0143703 0.000191817 0.00648095
0.0143779 0.00894962 0.00105304
0.0143703 0.000191778 0.00481949
0.0143756 0.00518069 -0.000163958
0.0143797 0.0101644 0.00315663
0.0143752 0.00684202 0.00980164
0.014375 0.00894829 0.00858616
0.0143726 0.00141029 0.0010531
0.0143738 0.00517926 0.00980223
0.0143697 0.0014088 0.00858692
0.0143756 0.00351806 -0.000163661
0.0143727 0.00351602 0.00980207
0.0143783 0.0101645 0.00481904
0.014375 0.000192235 0.00149802
0.0143809 0.0085054 -0.000165733
0.0143723 0.000191454 0.00814281
0.0143832 0.0101663 0.00149782
0.0143804 0.010165 0.00814108
0.0143785 0.0085024 0.00980258
0.0143737 0.00185487 0.00980332
0.0143771 0.00185693 -0.000164484
0.014384 0.0101667 0.00980398
0.0143877 0.0101673 -0.000167031
0.0143763 0.000190279 0.00980592
0.0143803 0.000191975 -0.000166069

CELLS 58 116
1 0
1 1
1 2
1 3
1 4
1 5
1 6
1 7
1 8
1 9
1 10
1 11
1 12
1 13
1 14
1 15
1 16
1 17
1 18
1 19
1 20
1 21
1 22
1 23
1 24
1 25
1 26
1 27
1 28
1 29
1 30
1 31
1 32
1 33
1 34
1 35
1 36
1 37
1 38
1 39
1 40
1 41
1 42
1 43
1 44
1 45
1 46
1 47
1 48
1 49
1 50
1 51
1 52
1 53
1 54
1 55
1 56
1 57

CELL_TYPES 58
1
1
1
1
1
1
1
1
1
1
1
1
1
1
1
1
1
1
1
1
1
1
1
1
1
1
1
1
1
1
1
1
1
1
1
1
1
1
1
1
1
1
1
1
1
1
1
1
1
1
1
1
1
1
1
1
1
1

POINT_DATA 58
FIELD FieldData 3

ExternalForceID_(#) 1 58 int
0
1
2
3
4
5
6
7
8
9
10
11
12
13
14
15
16
17
18
19
20
21
22
23
24
25
26
27
28
29
30
31
32
33
34
35
36
37
38
39
40
41
42
43
44
45
46
47
48
49
50
51
52
53
54
55
56
57

ExternalForceType_(0/1/2/3/4) 1 58 int
3
3
3
3
3
3
3
3
3
3
3
3
3
3
3
3
3
3
3
3
3
3
3
3
3
3
3
3
3
3
3
3
3
3
3
3
3
3
3
3
3
3
3
3
3
3
3
3
3
3
3
3
3
3
3
3
3
3

ExternalForce_(N) 3 58 double
0.001 0 0
0.001 0 0
0.001 0 0
0.001 0 0
0.001 0 0
0.001 0 0
0.001 0 0
0.001 0 0
0.001 0 0
0.001 0 0
0.001 0 0
0.001 0 0
0.001 0 0
0.001 0 0
0.001 0 0
0.001 0 0
0.001 0 0
0.001 0 0
0.001 0 0
0.001 0 0
0.001 0 0
0.001 0 0
0.001 0 0
0.001 0 0
0.001 0 0
0.001 0 0
0.001 0 0
0.001 0 0
0.001 0 0
0.001 0 0
0.001 0 0
0.001 0 0
0.001 0 0
0.001 0 0
0.001 0 0
0.001 0 0
0.001 0 0
0.001 0 0
0.001 0 0
0.001 0 0
0.001 0 0
0.001 0 0
0.001 0 0
0.001 0 0
0.001 0 0
0.001 0 0
0.001 0 0
0.001 0 0
0.001 0 0
0.001 0 0
0.001 0 0
0.001 0 0
0.001 0 0
0.001 0 0
0.001 0 0
0.001 0 0
0.001 0 0
0.001 0 0

