# vtk DataFile Version 4.2
vtk output
ASCII
DATASET UNSTRUCTURED_GRID

POINTS 58 double
0.0143748 0.0090163 0.00402182
0.0143665 0.00598231 0.00813198
0.0143689 0.00735317 0.00693505
0.014366 0.00162045 0.0040045
0.0143705 0.00744737 0.00402463
0.0143714 0.00865846 0.005637
0.0143675 0.00305427 0.00318273
0.0143699 0.00159143 0.0023984
0.0143771 0.0086535 0.00245556
0.0143641 0.00161962 0.00564246
0.0143685 0.00703987 0.00560318
0.0143727 0.00879647 0.00734292
0.0143728 0.00712738 0.00246133
0.0143647 0.00155001 0.00730485
0.0143698 0.00447612 0.00237292
0.0143664 0.00594822 0.00648594
0.0143635 0.00320241 0.00673581
0.0143707 0.00769096 0.00840423
0.0143696 0.00591895 0.0031948
0.0143648 0.00419655 0.00831555
0.0143725 0.00289054 0.0013806
0.0143747 0.00437433 0.000965183
0.0143668 0.00450728 0.00399482
0.0143642 0.00469932 0.00703809
0.0143653 0.00262698 0.00838335
0.0143644 0.00450761 0.00565639
0.0143672 0.00591828 0.00482503
0.0143748 0.00594904 0.00142522
0.0143781 0.00766086 0.00121279
0.014382 0.00683925 -0.000159017
0.0143723 0.000188658 0.00316523
0.0143806 0.0101614 0.00648505
0.014365 0.00306523 0.00482495
0.0143685 0.000188111 0.00648715
0.0143833 0.00894633 0.00105913
0.0143696 0.000188088 0.00482565
0.0143803 0.00517734 -0.00015788
0.014384 0.010161 0.00316277
0.0143736 0.00683866 0.00980814
0.0143751 0.0089449 0.00859262
0.014375 0.00140663 0.00105911
0.0143717 0.00517579 0.00980871
0.0143669 0.00140509 0.00859328
0.0143797 0.00351457 -0.000157623
0.0143698 0.00351251 0.00980852
0.0143815 0.0101611 0.00482524
0.0143767 0.000188513 0.00150406
0.0143868 0.00850215 -0.000159644
0.0143694 0.000187701 0.00814913
0.0143887 0.010163 0.00150394
0.0143813 0.0101616 0.00814759
0.0143776 0.00849899 0.00980911
0.0143702 0.00185117 0.00980975
0.0143805 0.0018533 -0.000158465
0.0143837 0.0101632 0.00981057
0.0143943 0.010164 -0.000160905
0.0143723 0.000186531 0.00981233
0.014383 0.000188191 -0.000160036

CELLS 58 116
1 0
1 1
1 2
1 3
1 4
1 5
1 6
1 7
1 8
1 9
1 10
1 11
1 12
1 13
1 14
1 15
1 16
1 17
1 18
1 19
1 20
1 21
1 22
1 23
1 24
1 25
1 26
1 27
1 28
1 29
1 30
1 31
1 32
1 33
1 34
1 35
1 36
1 37
1 38
1 39
1 40
1 41
1 42
1 43
1 44
1 45
1 46
1 47
1 48
1 49
1 50
1 51
1 52
1 53
1 54
1 55
1 56
1 57

CELL_TYPES 58
1
1
1
1
1
1
1
1
1
1
1
1
1
1
1
1
1
1
1
1
1
1
1
1
1
1
1
1
1
1
1
1
1
1
1
1
1
1
1
1
1
1
1
1
1
1
1
1
1
1
1
1
1
1
1
1
1
1

POINT_DATA 58
FIELD FieldData 3

ExternalForceID_(#) 1 58 int
0
1
2
3
4
5
6
7
8
9
10
11
12
13
14
15
16
17
18
19
20
21
22
23
24
25
26
27
28
29
30
31
32
33
34
35
36
37
38
39
40
41
42
43
44
45
46
47
48
49
50
51
52
53
54
55
56
57

ExternalForceType_(0/1/2/3/4) 1 58 int
3
3
3
3
3
3
3
3
3
3
3
3
3
3
3
3
3
3
3
3
3
3
3
3
3
3
3
3
3
3
3
3
3
3
3
3
3
3
3
3
3
3
3
3
3
3
3
3
3
3
3
3
3
3
3
3
3
3

ExternalForce_(N) 3 58 double
0.001 0 0
0.001 0 0
0.001 0 0
0.001 0 0
0.001 0 0
0.001 0 0
0.001 0 0
0.001 0 0
0.001 0 0
0.001 0 0
0.001 0 0
0.001 0 0
0.001 0 0
0.001 0 0
0.001 0 0
0.001 0 0
0.001 0 0
0.001 0 0
0.001 0 0
0.001 0 0
0.001 0 0
0.001 0 0
0.001 0 0
0.001 0 0
0.001 0 0
0.001 0 0
0.001 0 0
0.001 0 0
0.001 0 0
0.001 0 0
0.001 0 0
0.001 0 0
0.001 0 0
0.001 0 0
0.001 0 0
0.001 0 0
0.001 0 0
0.001 0 0
0.001 0 0
0.001 0 0
0.001 0 0
0.001 0 0
0.001 0 0
0.001 0 0
0.001 0 0
0.001 0 0
0.001 0 0
0.001 0 0
0.001 0 0
0.001 0 0
0.001 0 0
0.001 0 0
0.001 0 0
0.001 0 0
0.001 0 0
0.001 0 0
0.001 0 0
0.001 0 0

