# vtk DataFile Version 4.2
vtk output
ASCII
DATASET UNSTRUCTURED_GRID

POINTS 58 double
0.0143708 0.00901818 0.00401722
0.0143654 0.00598422 0.00812711
0.0143669 0.00735505 0.00693025
0.0143637 0.00162253 0.00399991
0.0143668 0.00744922 0.00402004
0.0143684 0.00866035 0.0056323
0.0143644 0.00305626 0.00317816
0.0143668 0.0015935 0.00239385
0.0143723 0.00865536 0.00245095
0.0143627 0.00162171 0.0056378
0.0143658 0.00704172 0.00559849
0.0143705 0.00879836 0.00733808
0.0143684 0.00712919 0.00245676
0.0143642 0.00155214 0.00730009
0.0143659 0.00447805 0.00236839
0.0143644 0.0059501 0.0064812
0.0143624 0.00320439 0.00673107
0.0143694 0.00769286 0.00839934
0.0143658 0.00592082 0.00319025
0.0143642 0.0041985 0.0083107
0.0143685 0.00289254 0.0013761
0.0143701 0.00437626 0.000960655
0.0143639 0.0045092 0.00399021
0.0143629 0.00470124 0.00703332
0.0143651 0.00262904 0.00837851
0.0143624 0.00450953 0.0056517
0.0143643 0.00592016 0.00482039
0.0143701 0.0059509 0.00142068
0.0143729 0.00766265 0.00120823
0.0143763 0.00684108 -0.000163668
0.0143699 0.000190794 0.00316067
0.0143777 0.0101634 0.00648028
0.0143628 0.00306721 0.00482031
0.0143679 0.000190249 0.00648248
0.0143777 0.00894817 0.00105454
0.0143681 0.000190214 0.00482103
0.014375 0.00517919 -0.000162505
0.0143793 0.010163 0.00315816
0.0143733 0.00684056 0.00980314
0.0143736 0.00894684 0.00858769
0.0143712 0.00140872 0.0010546
0.0143717 0.00517776 0.00980374
0.0143671 0.00140723 0.00858844
0.0143747 0.00351653 -0.000162209
0.0143702 0.0035145 0.00980357
0.0143776 0.0101631 0.00482058
0.0143734 0.000190661 0.00149953
0.0143807 0.00850395 -0.000164283
0.0143697 0.000189871 0.00814433
0.014383 0.0101649 0.00149932
0.0143793 0.0101636 0.00814263
0.0143768 0.00850094 0.00980409
0.014371 0.0018533 0.00980482
0.0143759 0.00185537 -0.000163032
0.0143825 0.0101653 0.00980549
0.0143878 0.0101658 -0.000165571
0.0143734 0.000188691 0.0098074
0.0143788 0.000190392 -0.00016461

CELLS 58 116
1 0
1 1
1 2
1 3
1 4
1 5
1 6
1 7
1 8
1 9
1 10
1 11
1 12
1 13
1 14
1 15
1 16
1 17
1 18
1 19
1 20
1 21
1 22
1 23
1 24
1 25
1 26
1 27
1 28
1 29
1 30
1 31
1 32
1 33
1 34
1 35
1 36
1 37
1 38
1 39
1 40
1 41
1 42
1 43
1 44
1 45
1 46
1 47
1 48
1 49
1 50
1 51
1 52
1 53
1 54
1 55
1 56
1 57

CELL_TYPES 58
1
1
1
1
1
1
1
1
1
1
1
1
1
1
1
1
1
1
1
1
1
1
1
1
1
1
1
1
1
1
1
1
1
1
1
1
1
1
1
1
1
1
1
1
1
1
1
1
1
1
1
1
1
1
1
1
1
1

POINT_DATA 58
FIELD FieldData 3

ExternalForceID_(#) 1 58 int
0
1
2
3
4
5
6
7
8
9
10
11
12
13
14
15
16
17
18
19
20
21
22
23
24
25
26
27
28
29
30
31
32
33
34
35
36
37
38
39
40
41
42
43
44
45
46
47
48
49
50
51
52
53
54
55
56
57

ExternalForceType_(0/1/2/3/4) 1 58 int
3
3
3
3
3
3
3
3
3
3
3
3
3
3
3
3
3
3
3
3
3
3
3
3
3
3
3
3
3
3
3
3
3
3
3
3
3
3
3
3
3
3
3
3
3
3
3
3
3
3
3
3
3
3
3
3
3
3

ExternalForce_(N) 3 58 double
0.001 0 0
0.001 0 0
0.001 0 0
0.001 0 0
0.001 0 0
0.001 0 0
0.001 0 0
0.001 0 0
0.001 0 0
0.001 0 0
0.001 0 0
0.001 0 0
0.001 0 0
0.001 0 0
0.001 0 0
0.001 0 0
0.001 0 0
0.001 0 0
0.001 0 0
0.001 0 0
0.001 0 0
0.001 0 0
0.001 0 0
0.001 0 0
0.001 0 0
0.001 0 0
0.001 0 0
0.001 0 0
0.001 0 0
0.001 0 0
0.001 0 0
0.001 0 0
0.001 0 0
0.001 0 0
0.001 0 0
0.001 0 0
0.001 0 0
0.001 0 0
0.001 0 0
0.001 0 0
0.001 0 0
0.001 0 0
0.001 0 0
0.001 0 0
0.001 0 0
0.001 0 0
0.001 0 0
0.001 0 0
0.001 0 0
0.001 0 0
0.001 0 0
0.001 0 0
0.001 0 0
0.001 0 0
0.001 0 0
0.001 0 0
0.001 0 0
0.001 0 0

