# vtk DataFile Version 4.2
vtk output
ASCII
DATASET UNSTRUCTURED_GRID

POINTS 58 double
0.0102714 0.00882831 0.0041956
0.0102593 0.00580134 0.00829045
0.0102629 0.00716749 0.00709667
0.0102542 0.00145071 0.00417771
0.010262 0.00725755 0.0041975
0.0102675 0.00847108 0.00580463
0.0102557 0.00288125 0.00336013
0.0102594 0.00142216 0.00257755
0.0102739 0.00846562 0.00263584
0.0102531 0.0014496 0.00580807
0.0102592 0.00685313 0.00577189
0.0102717 0.00860842 0.00750333
0.0102647 0.00693833 0.00264082
0.0102564 0.00138095 0.00746408
0.0102591 0.00429936 0.00255387
0.0102571 0.00576804 0.00664965
0.0102534 0.00303013 0.00689666
0.010268 0.0075055 0.00856199
0.0102582 0.00573915 0.00337219
0.0102567 0.0040216 0.00847376
0.0102624 0.00271734 0.00156359
0.0102663 0.0041976 0.00114966
0.0102543 0.00433012 0.00416736
0.010255 0.00452225 0.00719843
0.0102582 0.00245597 0.00854096
0.0102533 0.00433084 0.00582269
0.0102555 0.00574014 0.00499488
0.0102659 0.00576849 0.00160927
0.0102735 0.00747115 0.00139822
0.0102785 0.0066546 2.90348e-05
0.010266 3.0072e-05 0.00334178
0.0102871 0.00996312 0.00664866
0.0102527 0.00289371 0.00499435
0.0102638 2.95956e-05 0.00664876
0.0102831 0.00875581 0.00124437
0.0102635 2.98204e-05 0.00499471
0.010276 0.00499809 3.07336e-05
0.0102888 0.00996248 0.00333956
0.0102747 0.00665562 0.00995824
0.010276 0.00875659 0.00874919
0.0102659 0.00123831 0.00124318
0.0102703 0.00499793 0.0099587
0.0102604 0.00123669 0.00874901
0.0102741 0.00333931 3.11628e-05
0.0102675 0.00334073 0.00995936
0.0102865 0.00996204 0.00499664
0.0102713 2.91158e-05 0.00168651
0.0102892 0.00831105 3.09747e-05
0.0102666 2.82645e-05 0.00830515
0.0102947 0.00996402 0.0016873
0.0102893 0.00996441 0.00830496
0.0102818 0.00831282 0.00995891
0.0102679 0.00168082 0.00995997
0.0102749 0.00168264 3.04779e-05
0.0102925 0.00996731 0.00996138
0.0103025 0.00996562 2.89479e-05
0.0102703 2.56434e-05 0.00996252
0.0102783 2.84993e-05 2.80376e-05

CELLS 58 116
1 0
1 1
1 2
1 3
1 4
1 5
1 6
1 7
1 8
1 9
1 10
1 11
1 12
1 13
1 14
1 15
1 16
1 17
1 18
1 19
1 20
1 21
1 22
1 23
1 24
1 25
1 26
1 27
1 28
1 29
1 30
1 31
1 32
1 33
1 34
1 35
1 36
1 37
1 38
1 39
1 40
1 41
1 42
1 43
1 44
1 45
1 46
1 47
1 48
1 49
1 50
1 51
1 52
1 53
1 54
1 55
1 56
1 57

CELL_TYPES 58
1
1
1
1
1
1
1
1
1
1
1
1
1
1
1
1
1
1
1
1
1
1
1
1
1
1
1
1
1
1
1
1
1
1
1
1
1
1
1
1
1
1
1
1
1
1
1
1
1
1
1
1
1
1
1
1
1
1

POINT_DATA 58
FIELD FieldData 3

ExternalForceID_(#) 1 58 int
0
1
2
3
4
5
6
7
8
9
10
11
12
13
14
15
16
17
18
19
20
21
22
23
24
25
26
27
28
29
30
31
32
33
34
35
36
37
38
39
40
41
42
43
44
45
46
47
48
49
50
51
52
53
54
55
56
57

ExternalForceType_(0/1/2/3/4) 1 58 int
3
3
3
3
3
3
3
3
3
3
3
3
3
3
3
3
3
3
3
3
3
3
3
3
3
3
3
3
3
3
3
3
3
3
3
3
3
3
3
3
3
3
3
3
3
3
3
3
3
3
3
3
3
3
3
3
3
3

ExternalForce_(N) 3 58 double
0.001 0 0
0.001 0 0
0.001 0 0
0.001 0 0
0.001 0 0
0.001 0 0
0.001 0 0
0.001 0 0
0.001 0 0
0.001 0 0
0.001 0 0
0.001 0 0
0.001 0 0
0.001 0 0
0.001 0 0
0.001 0 0
0.001 0 0
0.001 0 0
0.001 0 0
0.001 0 0
0.001 0 0
0.001 0 0
0.001 0 0
0.001 0 0
0.001 0 0
0.001 0 0
0.001 0 0
0.001 0 0
0.001 0 0
0.001 0 0
0.001 0 0
0.001 0 0
0.001 0 0
0.001 0 0
0.001 0 0
0.001 0 0
0.001 0 0
0.001 0 0
0.001 0 0
0.001 0 0
0.001 0 0
0.001 0 0
0.001 0 0
0.001 0 0
0.001 0 0
0.001 0 0
0.001 0 0
0.001 0 0
0.001 0 0
0.001 0 0
0.001 0 0
0.001 0 0
0.001 0 0
0.001 0 0
0.001 0 0
0.001 0 0
0.001 0 0
0.001 0 0

