# vtk DataFile Version 4.2
vtk output
ASCII
DATASET UNSTRUCTURED_GRID

POINTS 58 double
0.0143703 0.00901931 0.0040177
0.014365 0.00598535 0.00812766
0.0143664 0.00735618 0.00693078
0.0143642 0.00162375 0.00400037
0.0143666 0.00745035 0.00402051
0.0143678 0.00866147 0.00563281
0.0143647 0.00305745 0.00317861
0.0143673 0.00159473 0.00239429
0.0143719 0.0086565 0.00245142
0.0143631 0.00162292 0.00563829
0.0143655 0.00704286 0.00559899
0.0143699 0.00879947 0.00733862
0.0143683 0.00713035 0.00245722
0.0143645 0.00155334 0.00730061
0.0143661 0.00447922 0.00236884
0.0143642 0.00595124 0.00648171
0.0143625 0.00320557 0.00673158
0.0143688 0.00769397 0.0083999
0.0143658 0.00592198 0.00319071
0.0143641 0.00419965 0.00831124
0.0143689 0.00289375 0.00137653
0.0143704 0.00437744 0.000961099
0.0143639 0.00451037 0.00399068
0.0143628 0.00470239 0.00703384
0.0143652 0.00263023 0.00837905
0.0143624 0.00451069 0.00565219
0.0143642 0.00592131 0.00482087
0.0143701 0.00595207 0.00142113
0.0143727 0.00766381 0.00120869
0.0143763 0.00684225 -0.000163188
0.0143706 0.000192048 0.00316111
0.0143769 0.0101645 0.00648081
0.014363 0.00306839 0.00482078
0.0143684 0.000191489 0.00648297
0.0143774 0.00894933 0.00105501
0.0143687 0.000191459 0.00482149
0.0143752 0.00518038 -0.000162037
0.0143787 0.0101641 0.00315864
0.0143727 0.00684167 0.00980372
0.0143728 0.00894795 0.00858825
0.0143718 0.00140997 0.00105503
0.0143713 0.00517889 0.00980431
0.0143674 0.00140844 0.00858898
0.0143752 0.00351774 -0.000161756
0.0143701 0.00351566 0.00980414
0.014377 0.0101642 0.00482108
0.0143742 0.000191926 0.00149995
0.0143805 0.00850512 -0.000163792
0.0143701 0.000191113 0.00814487
0.0143825 0.010166 0.0014998
0.0143784 0.0101647 0.00814319
0.0143761 0.00850205 0.00980467
0.0143711 0.00185451 0.00980539
0.0143766 0.00185662 -0.000162589
0.0143816 0.0101664 0.00980608
0.0143874 0.010167 -0.000165067
0.0143737 0.00018994 0.00980799
0.0143797 0.000191663 -0.000164177

CELLS 58 116
1 0
1 1
1 2
1 3
1 4
1 5
1 6
1 7
1 8
1 9
1 10
1 11
1 12
1 13
1 14
1 15
1 16
1 17
1 18
1 19
1 20
1 21
1 22
1 23
1 24
1 25
1 26
1 27
1 28
1 29
1 30
1 31
1 32
1 33
1 34
1 35
1 36
1 37
1 38
1 39
1 40
1 41
1 42
1 43
1 44
1 45
1 46
1 47
1 48
1 49
1 50
1 51
1 52
1 53
1 54
1 55
1 56
1 57

CELL_TYPES 58
1
1
1
1
1
1
1
1
1
1
1
1
1
1
1
1
1
1
1
1
1
1
1
1
1
1
1
1
1
1
1
1
1
1
1
1
1
1
1
1
1
1
1
1
1
1
1
1
1
1
1
1
1
1
1
1
1
1

POINT_DATA 58
FIELD FieldData 3

ExternalForceID_(#) 1 58 int
0
1
2
3
4
5
6
7
8
9
10
11
12
13
14
15
16
17
18
19
20
21
22
23
24
25
26
27
28
29
30
31
32
33
34
35
36
37
38
39
40
41
42
43
44
45
46
47
48
49
50
51
52
53
54
55
56
57

ExternalForceType_(0/1/2/3/4) 1 58 int
3
3
3
3
3
3
3
3
3
3
3
3
3
3
3
3
3
3
3
3
3
3
3
3
3
3
3
3
3
3
3
3
3
3
3
3
3
3
3
3
3
3
3
3
3
3
3
3
3
3
3
3
3
3
3
3
3
3

ExternalForce_(N) 3 58 double
0.001 0 0
0.001 0 0
0.001 0 0
0.001 0 0
0.001 0 0
0.001 0 0
0.001 0 0
0.001 0 0
0.001 0 0
0.001 0 0
0.001 0 0
0.001 0 0
0.001 0 0
0.001 0 0
0.001 0 0
0.001 0 0
0.001 0 0
0.001 0 0
0.001 0 0
0.001 0 0
0.001 0 0
0.001 0 0
0.001 0 0
0.001 0 0
0.001 0 0
0.001 0 0
0.001 0 0
0.001 0 0
0.001 0 0
0.001 0 0
0.001 0 0
0.001 0 0
0.001 0 0
0.001 0 0
0.001 0 0
0.001 0 0
0.001 0 0
0.001 0 0
0.001 0 0
0.001 0 0
0.001 0 0
0.001 0 0
0.001 0 0
0.001 0 0
0.001 0 0
0.001 0 0
0.001 0 0
0.001 0 0
0.001 0 0
0.001 0 0
0.001 0 0
0.001 0 0
0.001 0 0
0.001 0 0
0.001 0 0
0.001 0 0
0.001 0 0
0.001 0 0

