# vtk DataFile Version 4.2
vtk output
ASCII
DATASET UNSTRUCTURED_GRID

POINTS 58 double
0.014375 0.00901636 0.00402398
0.0143656 0.00598205 0.00813503
0.0143684 0.00735307 0.00693788
0.0143661 0.00161984 0.00400663
0.0143707 0.00744735 0.00402679
0.0143712 0.00865847 0.00563954
0.0143678 0.00305377 0.00318469
0.0143704 0.00159082 0.0024002
0.0143776 0.00865354 0.00245742
0.0143638 0.00161901 0.005645
0.0143683 0.00703978 0.00560568
0.014372 0.0087965 0.00734585
0.0143734 0.00712736 0.00246319
0.0143639 0.00154938 0.00730773
0.0143703 0.00447572 0.00237469
0.0143659 0.00594793 0.00648865
0.0143629 0.00320188 0.00673859
0.0143697 0.00769086 0.00840733
0.01437 0.00591865 0.00319675
0.0143638 0.00419609 0.00831861
0.0143732 0.00289003 0.00138218
0.0143755 0.00437394 0.000966696
0.014367 0.00450689 0.00399699
0.0143636 0.00469893 0.00704094
0.0143642 0.0026264 0.00838641
0.0143642 0.00450721 0.00565892
0.0143672 0.00591796 0.00482739
0.0143755 0.00594878 0.0014268
0.0143789 0.00766089 0.00121434
0.0143831 0.00683913 -0.000157599
0.0143724 0.000187828 0.00316718
0.0143801 0.0101618 0.00648781
0.0143649 0.00306469 0.0048273
0.0143678 0.000187281 0.00648987
0.0143841 0.00894646 0.0010607
0.0143693 0.000187263 0.00482801
0.0143813 0.00517705 -0.000156506
0.0143843 0.0101615 0.0031648
0.0143722 0.00683847 0.00981152
0.014374 0.00894494 0.00859578
0.0143757 0.001406 0.00106063
0.0143702 0.00517543 0.00981207
0.0143657 0.00140444 0.0085964
0.0143806 0.00351412 -0.000156278
0.0143683 0.00351197 0.00981186
0.0143813 0.0101615 0.00482758
0.0143772 0.000187709 0.00150567
0.0143878 0.00850228 -0.000158264
0.0143682 0.000186886 0.00815219
0.0143893 0.0101634 0.00150561
0.0143803 0.010162 0.00815069
0.0143762 0.00849895 0.00981249
0.0143687 0.00185056 0.00981309
0.0143814 0.00185273 -0.000157125
0.0143822 0.0101635 0.00981393
0.0143953 0.0101644 -0.00015946
0.0143706 0.000185749 0.00981566
0.0143839 0.000187363 -0.000158672

CELLS 58 116
1 0
1 1
1 2
1 3
1 4
1 5
1 6
1 7
1 8
1 9
1 10
1 11
1 12
1 13
1 14
1 15
1 16
1 17
1 18
1 19
1 20
1 21
1 22
1 23
1 24
1 25
1 26
1 27
1 28
1 29
1 30
1 31
1 32
1 33
1 34
1 35
1 36
1 37
1 38
1 39
1 40
1 41
1 42
1 43
1 44
1 45
1 46
1 47
1 48
1 49
1 50
1 51
1 52
1 53
1 54
1 55
1 56
1 57

CELL_TYPES 58
1
1
1
1
1
1
1
1
1
1
1
1
1
1
1
1
1
1
1
1
1
1
1
1
1
1
1
1
1
1
1
1
1
1
1
1
1
1
1
1
1
1
1
1
1
1
1
1
1
1
1
1
1
1
1
1
1
1

POINT_DATA 58
FIELD FieldData 3

ExternalForceID_(#) 1 58 int
0
1
2
3
4
5
6
7
8
9
10
11
12
13
14
15
16
17
18
19
20
21
22
23
24
25
26
27
28
29
30
31
32
33
34
35
36
37
38
39
40
41
42
43
44
45
46
47
48
49
50
51
52
53
54
55
56
57

ExternalForceType_(0/1/2/3/4) 1 58 int
3
3
3
3
3
3
3
3
3
3
3
3
3
3
3
3
3
3
3
3
3
3
3
3
3
3
3
3
3
3
3
3
3
3
3
3
3
3
3
3
3
3
3
3
3
3
3
3
3
3
3
3
3
3
3
3
3
3

ExternalForce_(N) 3 58 double
0.001 0 0
0.001 0 0
0.001 0 0
0.001 0 0
0.001 0 0
0.001 0 0
0.001 0 0
0.001 0 0
0.001 0 0
0.001 0 0
0.001 0 0
0.001 0 0
0.001 0 0
0.001 0 0
0.001 0 0
0.001 0 0
0.001 0 0
0.001 0 0
0.001 0 0
0.001 0 0
0.001 0 0
0.001 0 0
0.001 0 0
0.001 0 0
0.001 0 0
0.001 0 0
0.001 0 0
0.001 0 0
0.001 0 0
0.001 0 0
0.001 0 0
0.001 0 0
0.001 0 0
0.001 0 0
0.001 0 0
0.001 0 0
0.001 0 0
0.001 0 0
0.001 0 0
0.001 0 0
0.001 0 0
0.001 0 0
0.001 0 0
0.001 0 0
0.001 0 0
0.001 0 0
0.001 0 0
0.001 0 0
0.001 0 0
0.001 0 0
0.001 0 0
0.001 0 0
0.001 0 0
0.001 0 0
0.001 0 0
0.001 0 0
0.001 0 0
0.001 0 0

