# vtk DataFile Version 4.2
vtk output
ASCII
DATASET UNSTRUCTURED_GRID

POINTS 58 double
0.0143617 0.00902505 0.00401534
0.0143597 0.00599047 0.00812654
0.0143599 0.00736158 0.00692935
0.0143603 0.00162857 0.0039979
0.0143591 0.00745589 0.00401816
0.0143601 0.0086671 0.005631
0.0143598 0.00306232 0.00317585
0.014363 0.00159956 0.00239128
0.0143631 0.00866219 0.00244849
0.0143597 0.00162775 0.00563649
0.0143588 0.00704825 0.00559712
0.0143624 0.00880512 0.00733733
0.0143605 0.00713583 0.0024543
0.0143616 0.00155815 0.00729931
0.01436 0.00448418 0.00236581
0.0143585 0.00595631 0.00648017
0.0143585 0.00321035 0.00673014
0.0143624 0.00769938 0.00839887
0.0143591 0.00592704 0.003188
0.0143599 0.00420447 0.00831016
0.0143634 0.00289867 0.00137317
0.0143638 0.00438243 0.000957592
0.0143584 0.00451533 0.00398829
0.014358 0.00470731 0.00703249
0.0143619 0.00263504 0.00837797
0.0143573 0.00451562 0.00565036
0.014358 0.00592631 0.00481878
0.0143628 0.0059572 0.00141777
0.0143641 0.00766939 0.00120523
0.0143677 0.0068476 -0.000167026
0.0143671 0.000196537 0.00315831
0.0143682 0.0101709 0.00647934
0.0143586 0.00307314 0.00481865
0.014366 0.000195948 0.00648148
0.0143678 0.00895518 0.00105155
0.0143658 0.000195921 0.00481937
0.0143677 0.00518546 -0.000165936
0.0143689 0.0101705 0.00315605
0.0143671 0.00684692 0.00980301
0.0143656 0.0089537 0.00858724
0.0143671 0.00141481 0.00105154
0.0143669 0.0051839 0.00980359
0.0143649 0.00141325 0.00858802
0.0143687 0.00352269 -0.000165671
0.0143666 0.00352041 0.00980341
0.0143677 0.0101707 0.00481897
0.0143701 0.000196503 0.00149657
0.0143708 0.00851091 -0.000167662
0.0143681 0.000195661 0.00814384
0.0143722 0.0101725 0.00149652
0.0143701 0.0101711 0.00814207
0.0143694 0.00850768 0.00980394
0.0143686 0.0018594 0.00980468
0.0143711 0.00186151 -0.000166494
0.0143737 0.0101728 0.00980525
0.0143765 0.0101735 -0.000168834
0.0143722 0.000194546 0.0098073
0.0143752 0.000196296 -0.000168065

CELLS 58 116
1 0
1 1
1 2
1 3
1 4
1 5
1 6
1 7
1 8
1 9
1 10
1 11
1 12
1 13
1 14
1 15
1 16
1 17
1 18
1 19
1 20
1 21
1 22
1 23
1 24
1 25
1 26
1 27
1 28
1 29
1 30
1 31
1 32
1 33
1 34
1 35
1 36
1 37
1 38
1 39
1 40
1 41
1 42
1 43
1 44
1 45
1 46
1 47
1 48
1 49
1 50
1 51
1 52
1 53
1 54
1 55
1 56
1 57

CELL_TYPES 58
1
1
1
1
1
1
1
1
1
1
1
1
1
1
1
1
1
1
1
1
1
1
1
1
1
1
1
1
1
1
1
1
1
1
1
1
1
1
1
1
1
1
1
1
1
1
1
1
1
1
1
1
1
1
1
1
1
1

POINT_DATA 58
FIELD FieldData 3

ExternalForceID_(#) 1 58 int
0
1
2
3
4
5
6
7
8
9
10
11
12
13
14
15
16
17
18
19
20
21
22
23
24
25
26
27
28
29
30
31
32
33
34
35
36
37
38
39
40
41
42
43
44
45
46
47
48
49
50
51
52
53
54
55
56
57

ExternalForceType_(0/1/2/3/4) 1 58 int
3
3
3
3
3
3
3
3
3
3
3
3
3
3
3
3
3
3
3
3
3
3
3
3
3
3
3
3
3
3
3
3
3
3
3
3
3
3
3
3
3
3
3
3
3
3
3
3
3
3
3
3
3
3
3
3
3
3

ExternalForce_(N) 3 58 double
0.001 0 0
0.001 0 0
0.001 0 0
0.001 0 0
0.001 0 0
0.001 0 0
0.001 0 0
0.001 0 0
0.001 0 0
0.001 0 0
0.001 0 0
0.001 0 0
0.001 0 0
0.001 0 0
0.001 0 0
0.001 0 0
0.001 0 0
0.001 0 0
0.001 0 0
0.001 0 0
0.001 0 0
0.001 0 0
0.001 0 0
0.001 0 0
0.001 0 0
0.001 0 0
0.001 0 0
0.001 0 0
0.001 0 0
0.001 0 0
0.001 0 0
0.001 0 0
0.001 0 0
0.001 0 0
0.001 0 0
0.001 0 0
0.001 0 0
0.001 0 0
0.001 0 0
0.001 0 0
0.001 0 0
0.001 0 0
0.001 0 0
0.001 0 0
0.001 0 0
0.001 0 0
0.001 0 0
0.001 0 0
0.001 0 0
0.001 0 0
0.001 0 0
0.001 0 0
0.001 0 0
0.001 0 0
0.001 0 0
0.001 0 0
0.001 0 0
0.001 0 0

