# vtk DataFile Version 4.2
vtk output
ASCII
DATASET UNSTRUCTURED_GRID

POINTS 58 double
0.0143706 0.00901834 0.00401678
0.0143655 0.00598439 0.00812667
0.0143669 0.00735522 0.0069298
0.0143638 0.00162273 0.00399947
0.0143667 0.00744938 0.00401959
0.0143683 0.00866051 0.00563186
0.0143643 0.00305645 0.00317772
0.0143667 0.00159371 0.00239341
0.0143721 0.00865553 0.0024505
0.0143628 0.00162192 0.00563736
0.0143658 0.00704189 0.00559804
0.0143706 0.00879852 0.00733763
0.0143682 0.00712935 0.00245631
0.0143644 0.00155234 0.00729965
0.0143658 0.00447823 0.00236795
0.0143645 0.00595027 0.00648076
0.0143625 0.00320458 0.00673063
0.0143695 0.00769302 0.00839889
0.0143657 0.00592099 0.00318981
0.0143644 0.00419868 0.00831026
0.0143683 0.00289274 0.00137566
0.0143699 0.00437643 0.000960212
0.0143638 0.00450938 0.00398977
0.014363 0.00470141 0.00703287
0.0143653 0.00262924 0.00837807
0.0143624 0.00450971 0.00565126
0.0143643 0.00592033 0.00481994
0.0143699 0.00595106 0.00142024
0.0143726 0.00766281 0.00120778
0.014376 0.00684124 -0.000164121
0.0143699 0.000191015 0.00316023
0.0143777 0.0101636 0.00647984
0.0143628 0.0030674 0.00481986
0.0143681 0.00019047 0.00648204
0.0143774 0.00894833 0.00105409
0.0143682 0.000190434 0.00482059
0.0143747 0.00517935 -0.000162956
0.014379 0.0101631 0.00315771
0.0143734 0.00684073 0.00980269
0.0143737 0.00894701 0.00858723
0.014371 0.00140893 0.00105416
0.0143719 0.00517793 0.00980328
0.0143674 0.00140744 0.008588
0.0143745 0.00351672 -0.000162657
0.0143705 0.00351469 0.00980312
0.0143775 0.0101633 0.00482013
0.0143733 0.000190883 0.00149909
0.0143804 0.00850411 -0.000164734
0.0143699 0.000190095 0.00814389
0.0143827 0.010165 0.00149887
0.0143793 0.0101638 0.00814217
0.014377 0.00850111 0.00980363
0.0143713 0.00185351 0.00980437
0.0143757 0.00185557 -0.000163479
0.0143827 0.0101655 0.00980503
0.0143874 0.010166 -0.000166025
0.0143738 0.000188914 0.00980696
0.0143787 0.00019062 -0.000165059

CELLS 58 116
1 0
1 1
1 2
1 3
1 4
1 5
1 6
1 7
1 8
1 9
1 10
1 11
1 12
1 13
1 14
1 15
1 16
1 17
1 18
1 19
1 20
1 21
1 22
1 23
1 24
1 25
1 26
1 27
1 28
1 29
1 30
1 31
1 32
1 33
1 34
1 35
1 36
1 37
1 38
1 39
1 40
1 41
1 42
1 43
1 44
1 45
1 46
1 47
1 48
1 49
1 50
1 51
1 52
1 53
1 54
1 55
1 56
1 57

CELL_TYPES 58
1
1
1
1
1
1
1
1
1
1
1
1
1
1
1
1
1
1
1
1
1
1
1
1
1
1
1
1
1
1
1
1
1
1
1
1
1
1
1
1
1
1
1
1
1
1
1
1
1
1
1
1
1
1
1
1
1
1

POINT_DATA 58
FIELD FieldData 3

ExternalForceID_(#) 1 58 int
0
1
2
3
4
5
6
7
8
9
10
11
12
13
14
15
16
17
18
19
20
21
22
23
24
25
26
27
28
29
30
31
32
33
34
35
36
37
38
39
40
41
42
43
44
45
46
47
48
49
50
51
52
53
54
55
56
57

ExternalForceType_(0/1/2/3/4) 1 58 int
3
3
3
3
3
3
3
3
3
3
3
3
3
3
3
3
3
3
3
3
3
3
3
3
3
3
3
3
3
3
3
3
3
3
3
3
3
3
3
3
3
3
3
3
3
3
3
3
3
3
3
3
3
3
3
3
3
3

ExternalForce_(N) 3 58 double
0.001 0 0
0.001 0 0
0.001 0 0
0.001 0 0
0.001 0 0
0.001 0 0
0.001 0 0
0.001 0 0
0.001 0 0
0.001 0 0
0.001 0 0
0.001 0 0
0.001 0 0
0.001 0 0
0.001 0 0
0.001 0 0
0.001 0 0
0.001 0 0
0.001 0 0
0.001 0 0
0.001 0 0
0.001 0 0
0.001 0 0
0.001 0 0
0.001 0 0
0.001 0 0
0.001 0 0
0.001 0 0
0.001 0 0
0.001 0 0
0.001 0 0
0.001 0 0
0.001 0 0
0.001 0 0
0.001 0 0
0.001 0 0
0.001 0 0
0.001 0 0
0.001 0 0
0.001 0 0
0.001 0 0
0.001 0 0
0.001 0 0
0.001 0 0
0.001 0 0
0.001 0 0
0.001 0 0
0.001 0 0
0.001 0 0
0.001 0 0
0.001 0 0
0.001 0 0
0.001 0 0
0.001 0 0
0.001 0 0
0.001 0 0
0.001 0 0
0.001 0 0

