# vtk DataFile Version 4.2
vtk output
ASCII
DATASET UNSTRUCTURED_GRID

POINTS 58 double
0.0143705 0.00901985 0.00401508
0.0143667 0.00598589 0.00812486
0.0143676 0.00735671 0.00692802
0.0143649 0.00162443 0.00399776
0.0143669 0.00745086 0.0040179
0.0143686 0.008662 0.00563012
0.0143651 0.00305807 0.00317601
0.0143676 0.00159541 0.0023917
0.0143717 0.00865702 0.00244879
0.0143643 0.00162361 0.00563563
0.0143663 0.00704337 0.00559631
0.0143711 0.00880001 0.00733584
0.0143681 0.00713083 0.00245461
0.0143662 0.00155405 0.00729789
0.0143661 0.00447979 0.00236626
0.0143654 0.00595178 0.00647901
0.0143639 0.00320618 0.00672887
0.0143704 0.00769451 0.00839708
0.014366 0.0059225 0.00318812
0.0143659 0.00420023 0.00830846
0.0143687 0.00289437 0.00137397
0.01437 0.004378 0.000958507
0.0143645 0.00451093 0.00398806
0.0143642 0.00470295 0.00703111
0.0143671 0.00263089 0.00837627
0.0143634 0.00451125 0.00564952
0.0143648 0.00592183 0.00481822
0.0143698 0.00595258 0.00141854
0.0143722 0.00766428 0.00120607
0.0143754 0.00684274 -0.000165879
0.0143711 0.000192793 0.00315851
0.0143778 0.0101651 0.00647808
0.0143639 0.003069 0.00481814
0.01437 0.000192234 0.00648031
0.0143767 0.00894983 0.00105238
0.0143698 0.000192198 0.00481886
0.0143744 0.00518088 -0.000164711
0.0143786 0.0101647 0.00315601
0.0143748 0.00684222 0.00980081
0.0143745 0.00894852 0.0085854
0.0143717 0.00141066 0.00105245
0.0143736 0.00517948 0.00980142
0.0143695 0.00140916 0.0085862
0.0143745 0.00351833 -0.000164403
0.0143725 0.00351628 0.00980127
0.0143773 0.0101648 0.00481841
0.0143742 0.000192676 0.00149737
0.0143795 0.0085056 -0.000166476
0.0143721 0.000191873 0.00814211
0.0143819 0.0101666 0.00149716
0.0143798 0.0101654 0.00814034
0.0143781 0.00850264 0.00980174
0.0143736 0.00185522 0.00980253
0.0143761 0.00185728 -0.000165223
0.0143835 0.0101671 0.00980312
0.0143863 0.0101675 -0.000167767
0.0143763 0.000190689 0.00980513
0.0143793 0.000192447 -0.000166817

CELLS 58 116
1 0
1 1
1 2
1 3
1 4
1 5
1 6
1 7
1 8
1 9
1 10
1 11
1 12
1 13
1 14
1 15
1 16
1 17
1 18
1 19
1 20
1 21
1 22
1 23
1 24
1 25
1 26
1 27
1 28
1 29
1 30
1 31
1 32
1 33
1 34
1 35
1 36
1 37
1 38
1 39
1 40
1 41
1 42
1 43
1 44
1 45
1 46
1 47
1 48
1 49
1 50
1 51
1 52
1 53
1 54
1 55
1 56
1 57

CELL_TYPES 58
1
1
1
1
1
1
1
1
1
1
1
1
1
1
1
1
1
1
1
1
1
1
1
1
1
1
1
1
1
1
1
1
1
1
1
1
1
1
1
1
1
1
1
1
1
1
1
1
1
1
1
1
1
1
1
1
1
1

POINT_DATA 58
FIELD FieldData 3

ExternalForceID_(#) 1 58 int
0
1
2
3
4
5
6
7
8
9
10
11
12
13
14
15
16
17
18
19
20
21
22
23
24
25
26
27
28
29
30
31
32
33
34
35
36
37
38
39
40
41
42
43
44
45
46
47
48
49
50
51
52
53
54
55
56
57

ExternalForceType_(0/1/2/3/4) 1 58 int
3
3
3
3
3
3
3
3
3
3
3
3
3
3
3
3
3
3
3
3
3
3
3
3
3
3
3
3
3
3
3
3
3
3
3
3
3
3
3
3
3
3
3
3
3
3
3
3
3
3
3
3
3
3
3
3
3
3

ExternalForce_(N) 3 58 double
0.001 0 0
0.001 0 0
0.001 0 0
0.001 0 0
0.001 0 0
0.001 0 0
0.001 0 0
0.001 0 0
0.001 0 0
0.001 0 0
0.001 0 0
0.001 0 0
0.001 0 0
0.001 0 0
0.001 0 0
0.001 0 0
0.001 0 0
0.001 0 0
0.001 0 0
0.001 0 0
0.001 0 0
0.001 0 0
0.001 0 0
0.001 0 0
0.001 0 0
0.001 0 0
0.001 0 0
0.001 0 0
0.001 0 0
0.001 0 0
0.001 0 0
0.001 0 0
0.001 0 0
0.001 0 0
0.001 0 0
0.001 0 0
0.001 0 0
0.001 0 0
0.001 0 0
0.001 0 0
0.001 0 0
0.001 0 0
0.001 0 0
0.001 0 0
0.001 0 0
0.001 0 0
0.001 0 0
0.001 0 0
0.001 0 0
0.001 0 0
0.001 0 0
0.001 0 0
0.001 0 0
0.001 0 0
0.001 0 0
0.001 0 0
0.001 0 0
0.001 0 0

