# vtk DataFile Version 4.2
vtk output
ASCII
DATASET UNSTRUCTURED_GRID

POINTS 58 double
0.0140816 0.00902632 0.00402375
0.0140859 0.00598845 0.00814241
0.0140837 0.00736127 0.00694339
0.0140899 0.00162208 0.00400595
0.0140817 0.00745633 0.00402661
0.0140814 0.008668 0.00564261
0.0140872 0.00305712 0.00318228
0.0140913 0.00159293 0.00239645
0.0140824 0.00866324 0.00245399
0.0140901 0.00162141 0.00564824
0.0140829 0.00704794 0.00560839
0.014084 0.00880616 0.00735219
0.0140824 0.007136 0.00245982
0.0140924 0.00155169 0.00731395
0.0140853 0.0044803 0.00237062
0.0140843 0.00595396 0.00649337
0.0140876 0.00320507 0.00674394
0.014086 0.00769914 0.00841528
0.0140835 0.0059244 0.00319451
0.0140884 0.00420006 0.00832623
0.0140896 0.00289342 0.00137634
0.0140878 0.00437849 0.000960113
0.014085 0.00451164 0.00399675
0.0140854 0.00470368 0.0070469
0.0140919 0.00262936 0.00839412
0.0140846 0.00451189 0.00566192
0.0140834 0.00592346 0.00482884
0.0140855 0.00595487 0.00142091
0.014084 0.00767008 0.00120795
0.0140874 0.00684666 -0.000165789
0.0140968 0.000186934 0.00316469
0.0140865 0.0101753 0.00649291
0.0140872 0.00306751 0.00482859
0.0140973 0.000186478 0.00649486
0.0140853 0.00895696 0.00105422
0.0140964 0.000186386 0.00482938
0.0140894 0.00518247 -0.000165029
0.0140856 0.0101751 0.0031632
0.0140918 0.00684575 0.00982193
0.0140872 0.00895507 0.00860401
0.0140945 0.00140782 0.00105423
0.0140939 0.00518085 0.00982239
0.0140962 0.00140659 0.00860467
0.0140924 0.00351795 -0.000164869
0.0140956 0.00351518 0.00982203
0.0140854 0.0101752 0.00482883
0.0140985 0.000187133 0.00149998
0.0140875 0.00851244 -0.000166851
0.0140998 0.000186596 0.00815995
0.0140875 0.010177 0.00150013
0.0140889 0.0101753 0.00815828
0.0140916 0.00850842 0.00982285
0.0140993 0.00185339 0.00982327
0.0140967 0.00185508 -0.000165599
0.0140931 0.0101768 0.00982385
0.0140902 0.0101779 -0.000167571
0.0141046 0.000185827 0.00982574
0.0141024 0.000186821 -0.000166863

CELLS 58 116
1 0
1 1
1 2
1 3
1 4
1 5
1 6
1 7
1 8
1 9
1 10
1 11
1 12
1 13
1 14
1 15
1 16
1 17
1 18
1 19
1 20
1 21
1 22
1 23
1 24
1 25
1 26
1 27
1 28
1 29
1 30
1 31
1 32
1 33
1 34
1 35
1 36
1 37
1 38
1 39
1 40
1 41
1 42
1 43
1 44
1 45
1 46
1 47
1 48
1 49
1 50
1 51
1 52
1 53
1 54
1 55
1 56
1 57

CELL_TYPES 58
1
1
1
1
1
1
1
1
1
1
1
1
1
1
1
1
1
1
1
1
1
1
1
1
1
1
1
1
1
1
1
1
1
1
1
1
1
1
1
1
1
1
1
1
1
1
1
1
1
1
1
1
1
1
1
1
1
1

POINT_DATA 58
FIELD FieldData 3

ExternalForceID_(#) 1 58 int
0
1
2
3
4
5
6
7
8
9
10
11
12
13
14
15
16
17
18
19
20
21
22
23
24
25
26
27
28
29
30
31
32
33
34
35
36
37
38
39
40
41
42
43
44
45
46
47
48
49
50
51
52
53
54
55
56
57

ExternalForceType_(0/1/2/3/4) 1 58 int
3
3
3
3
3
3
3
3
3
3
3
3
3
3
3
3
3
3
3
3
3
3
3
3
3
3
3
3
3
3
3
3
3
3
3
3
3
3
3
3
3
3
3
3
3
3
3
3
3
3
3
3
3
3
3
3
3
3

ExternalForce_(N) 3 58 double
0.001 0 0
0.001 0 0
0.001 0 0
0.001 0 0
0.001 0 0
0.001 0 0
0.001 0 0
0.001 0 0
0.001 0 0
0.001 0 0
0.001 0 0
0.001 0 0
0.001 0 0
0.001 0 0
0.001 0 0
0.001 0 0
0.001 0 0
0.001 0 0
0.001 0 0
0.001 0 0
0.001 0 0
0.001 0 0
0.001 0 0
0.001 0 0
0.001 0 0
0.001 0 0
0.001 0 0
0.001 0 0
0.001 0 0
0.001 0 0
0.001 0 0
0.001 0 0
0.001 0 0
0.001 0 0
0.001 0 0
0.001 0 0
0.001 0 0
0.001 0 0
0.001 0 0
0.001 0 0
0.001 0 0
0.001 0 0
0.001 0 0
0.001 0 0
0.001 0 0
0.001 0 0
0.001 0 0
0.001 0 0
0.001 0 0
0.001 0 0
0.001 0 0
0.001 0 0
0.001 0 0
0.001 0 0
0.001 0 0
0.001 0 0
0.001 0 0
0.001 0 0

