# vtk DataFile Version 4.2
vtk output
ASCII
DATASET UNSTRUCTURED_GRID

POINTS 58 double
0.0110606 0.00882777 0.00416692
0.0110405 0.00580506 0.0082496
0.0110479 0.00717028 0.00705961
0.0110179 0.00145663 0.00414916
0.0110463 0.0072613 0.00416924
0.0110559 0.00847151 0.00577058
0.0110243 0.00288623 0.00333343
0.0110226 0.00142768 0.00255319
0.0110616 0.00846558 0.00261044
0.0110172 0.00145583 0.00577457
0.011043 0.00685665 0.00573766
0.0110616 0.00860918 0.00746482
0.0110476 0.00694183 0.00261594
0.0110211 0.00138708 0.00742643
0.0110325 0.00430355 0.00252921
0.0110371 0.0057715 0.00661345
0.0110235 0.00303512 0.00686075
0.0110552 0.00750794 0.00852027
0.0110372 0.00574222 0.0033457
0.0110316 0.0040267 0.00843232
0.0110303 0.00272225 0.00154218
0.0110392 0.00420157 0.00112891
0.0110287 0.00433452 0.00413906
0.0110306 0.00452681 0.00716134
0.0110274 0.00246142 0.00849973
0.0110277 0.0043353 0.0057893
0.0110352 0.0057427 0.0049638
0.0110447 0.00577107 0.0015872
0.0110578 0.00747352 0.00137634
0.0110603 0.00665673 9.02407e-06
0.0110237 3.39614e-05 0.00331556
0.0110803 0.00996404 0.00661214
0.0110218 0.00289852 0.00496336
0.0110225 3.39094e-05 0.00661317
0.0110718 0.00875568 0.0012229
0.0110214 3.37948e-05 0.00496352
0.0110515 0.00500118 1.07054e-05
0.011081 0.0099625 0.00331273
0.0110596 0.00665895 0.00991579
0.0110678 0.00875706 0.00870741
0.0110284 0.00124362 0.0012222
0.0110495 0.00500208 0.0099165
0.0110258 0.0012429 0.00870772
0.0110439 0.00334417 1.10714e-05
0.0110409 0.00334578 0.00991684
0.0110789 0.00996283 0.00496517
0.0110289 3.28565e-05 0.0016646
0.0110761 0.00831199 1.0075e-05
0.0110266 3.27325e-05 0.00826534
0.0110869 0.00996414 0.00166479
0.0110838 0.00996528 0.00826467
0.0110727 0.00831365 0.00991657
0.0110355 0.00168681 0.00991779
0.0110387 0.00168803 1.01214e-05
0.0110893 0.00996781 0.0099187
0.0110951 0.009965 7.94268e-06
0.0110325 3.0673e-05 0.00992
0.0110365 3.25654e-05 7.83147e-06

CELLS 58 116
1 0
1 1
1 2
1 3
1 4
1 5
1 6
1 7
1 8
1 9
1 10
1 11
1 12
1 13
1 14
1 15
1 16
1 17
1 18
1 19
1 20
1 21
1 22
1 23
1 24
1 25
1 26
1 27
1 28
1 29
1 30
1 31
1 32
1 33
1 34
1 35
1 36
1 37
1 38
1 39
1 40
1 41
1 42
1 43
1 44
1 45
1 46
1 47
1 48
1 49
1 50
1 51
1 52
1 53
1 54
1 55
1 56
1 57

CELL_TYPES 58
1
1
1
1
1
1
1
1
1
1
1
1
1
1
1
1
1
1
1
1
1
1
1
1
1
1
1
1
1
1
1
1
1
1
1
1
1
1
1
1
1
1
1
1
1
1
1
1
1
1
1
1
1
1
1
1
1
1

POINT_DATA 58
FIELD FieldData 3

ExternalForceID_(#) 1 58 int
0
1
2
3
4
5
6
7
8
9
10
11
12
13
14
15
16
17
18
19
20
21
22
23
24
25
26
27
28
29
30
31
32
33
34
35
36
37
38
39
40
41
42
43
44
45
46
47
48
49
50
51
52
53
54
55
56
57

ExternalForceType_(0/1/2/3/4) 1 58 int
3
3
3
3
3
3
3
3
3
3
3
3
3
3
3
3
3
3
3
3
3
3
3
3
3
3
3
3
3
3
3
3
3
3
3
3
3
3
3
3
3
3
3
3
3
3
3
3
3
3
3
3
3
3
3
3
3
3

ExternalForce_(N) 3 58 double
0.001 0 0
0.001 0 0
0.001 0 0
0.001 0 0
0.001 0 0
0.001 0 0
0.001 0 0
0.001 0 0
0.001 0 0
0.001 0 0
0.001 0 0
0.001 0 0
0.001 0 0
0.001 0 0
0.001 0 0
0.001 0 0
0.001 0 0
0.001 0 0
0.001 0 0
0.001 0 0
0.001 0 0
0.001 0 0
0.001 0 0
0.001 0 0
0.001 0 0
0.001 0 0
0.001 0 0
0.001 0 0
0.001 0 0
0.001 0 0
0.001 0 0
0.001 0 0
0.001 0 0
0.001 0 0
0.001 0 0
0.001 0 0
0.001 0 0
0.001 0 0
0.001 0 0
0.001 0 0
0.001 0 0
0.001 0 0
0.001 0 0
0.001 0 0
0.001 0 0
0.001 0 0
0.001 0 0
0.001 0 0
0.001 0 0
0.001 0 0
0.001 0 0
0.001 0 0
0.001 0 0
0.001 0 0
0.001 0 0
0.001 0 0
0.001 0 0
0.001 0 0

