# vtk DataFile Version 4.2
vtk output
ASCII
DATASET UNSTRUCTURED_GRID

POINTS 58 double
0.0119304 0.00890567 0.00411636
0.0119329 0.00587479 0.00821863
0.0119318 0.00724432 0.00702386
0.0119241 0.00151585 0.00409824
0.011926 0.00733767 0.00411898
0.0119308 0.00854844 0.00572837
0.0119228 0.00294853 0.00327808
0.0119247 0.00148666 0.00249475
0.0119294 0.00854304 0.00255225
0.0119261 0.00151529 0.00573312
0.0119279 0.00693086 0.00569463
0.0119369 0.00868646 0.00743107
0.011925 0.00701758 0.002558
0.0119313 0.00144607 0.00739263
0.0119227 0.00436921 0.00246971
0.0119284 0.00584056 0.00657557
0.0119274 0.00309695 0.00682467
0.0119378 0.00758207 0.0084906
0.0119235 0.00581093 0.0032905
0.0119325 0.00409058 0.00840187
0.0119244 0.00278468 0.00147866
0.0119252 0.00426724 0.00106371
0.0119232 0.00440049 0.0040889
0.0119281 0.0045927 0.00712661
0.0119342 0.0025223 0.00846954
0.0119248 0.00440101 0.00574728
0.0119249 0.00581057 0.00491772
0.0119253 0.00584065 0.00152337
0.011928 0.0075505 0.00131133
0.01193 0.00672984 -5.97181e-05
0.0119305 8.55457e-05 0.00326031
0.0119437 0.0100496 0.00657483
0.0119241 0.00295963 0.00491721
0.0119348 8.54417e-05 0.00657618
0.0119331 0.0088351 0.00115768
0.0119316 8.52295e-05 0.00491766
0.0119289 0.00506924 -5.86308e-05
0.0119389 0.0100486 0.00325859
0.0119458 0.00673066 0.00989229
0.011943 0.00883508 0.00867861
0.0119274 0.00130188 0.00115746
0.0119444 0.00506926 0.0098928
0.0119375 0.00130134 0.00867892
0.011929 0.00340802 -5.8381e-05
0.0119432 0.00340746 0.00989266
0.0119402 0.0100489 0.00491833
0.0119315 8.51543e-05 0.0016017
0.011935 0.00839094 -5.99461e-05
0.0119402 8.51446e-05 0.00823528
0.0119403 0.0100502 0.00160186
0.0119489 0.0100502 0.00823426
0.0119496 0.00838991 0.0098932
0.0119446 0.00174701 0.00989371
0.0119309 0.0017479 -5.91812e-05
0.011956 0.0100523 0.0098947
0.011943 0.0100509 -6.1338e-05
0.0119479 8.3878e-05 0.00989596
0.0119349 8.4882e-05 -6.09169e-05

CELLS 58 116
1 0
1 1
1 2
1 3
1 4
1 5
1 6
1 7
1 8
1 9
1 10
1 11
1 12
1 13
1 14
1 15
1 16
1 17
1 18
1 19
1 20
1 21
1 22
1 23
1 24
1 25
1 26
1 27
1 28
1 29
1 30
1 31
1 32
1 33
1 34
1 35
1 36
1 37
1 38
1 39
1 40
1 41
1 42
1 43
1 44
1 45
1 46
1 47
1 48
1 49
1 50
1 51
1 52
1 53
1 54
1 55
1 56
1 57

CELL_TYPES 58
1
1
1
1
1
1
1
1
1
1
1
1
1
1
1
1
1
1
1
1
1
1
1
1
1
1
1
1
1
1
1
1
1
1
1
1
1
1
1
1
1
1
1
1
1
1
1
1
1
1
1
1
1
1
1
1
1
1

POINT_DATA 58
FIELD FieldData 3

ExternalForceID_(#) 1 58 int
0
1
2
3
4
5
6
7
8
9
10
11
12
13
14
15
16
17
18
19
20
21
22
23
24
25
26
27
28
29
30
31
32
33
34
35
36
37
38
39
40
41
42
43
44
45
46
47
48
49
50
51
52
53
54
55
56
57

ExternalForceType_(0/1/2/3/4) 1 58 int
3
3
3
3
3
3
3
3
3
3
3
3
3
3
3
3
3
3
3
3
3
3
3
3
3
3
3
3
3
3
3
3
3
3
3
3
3
3
3
3
3
3
3
3
3
3
3
3
3
3
3
3
3
3
3
3
3
3

ExternalForce_(N) 3 58 double
0.001 0 0
0.001 0 0
0.001 0 0
0.001 0 0
0.001 0 0
0.001 0 0
0.001 0 0
0.001 0 0
0.001 0 0
0.001 0 0
0.001 0 0
0.001 0 0
0.001 0 0
0.001 0 0
0.001 0 0
0.001 0 0
0.001 0 0
0.001 0 0
0.001 0 0
0.001 0 0
0.001 0 0
0.001 0 0
0.001 0 0
0.001 0 0
0.001 0 0
0.001 0 0
0.001 0 0
0.001 0 0
0.001 0 0
0.001 0 0
0.001 0 0
0.001 0 0
0.001 0 0
0.001 0 0
0.001 0 0
0.001 0 0
0.001 0 0
0.001 0 0
0.001 0 0
0.001 0 0
0.001 0 0
0.001 0 0
0.001 0 0
0.001 0 0
0.001 0 0
0.001 0 0
0.001 0 0
0.001 0 0
0.001 0 0
0.001 0 0
0.001 0 0
0.001 0 0
0.001 0 0
0.001 0 0
0.001 0 0
0.001 0 0
0.001 0 0
0.001 0 0

