# vtk DataFile Version 4.2
vtk output
ASCII
DATASET UNSTRUCTURED_GRID

POINTS 58 double
0.0127098 0.00897175 0.00409288
0.0127162 0.00593454 0.00821046
0.0127126 0.0073071 0.00701183
0.012729 0.0015698 0.00407427
0.0127122 0.00740213 0.00409556
0.012709 0.00861352 0.00571138
0.0127247 0.00300418 0.00325087
0.0127315 0.00154067 0.00246506
0.012712 0.00860879 0.00252333
0.0127282 0.00156919 0.00571634
0.012713 0.00699382 0.00567705
0.0127105 0.00875168 0.00742073
0.0127143 0.00708187 0.00252901
0.0127297 0.00149953 0.00738182
0.0127212 0.00442677 0.00243946
0.0127155 0.0059 0.00656179
0.0127227 0.00315203 0.00681209
0.0127136 0.00764486 0.00848347
0.0127168 0.00587038 0.0032634
0.0127212 0.00414665 0.00839407
0.0127285 0.00284056 0.00144516
0.0127248 0.00432504 0.00102911
0.0127198 0.00445816 0.00406549
0.0127181 0.00465011 0.00711516
0.0127272 0.00257667 0.00846183
0.0127184 0.00445841 0.00573026
0.0127157 0.00586942 0.00489755
0.0127198 0.00590089 0.00148997
0.0127159 0.00761581 0.00127724
0.0127214 0.00679252 -9.62573e-05
0.0127388 0.000135443 0.00323302
0.0127118 0.0101209 0.00656171
0.0127237 0.00301444 0.00489695
0.0127373 0.000135081 0.00656273
0.0127154 0.0089025 0.00112366
0.0127375 0.000134951 0.0048975
0.0127258 0.00512882 -9.57903e-05
0.0127128 0.0101207 0.00323269
0.0127204 0.00679168 0.00988977
0.012713 0.00890069 0.00867221
0.012736 0.00135567 0.00112297
0.0127249 0.00512722 0.0098901
0.0127333 0.00135457 0.00867232
0.0127314 0.00346481 -9.58815e-05
0.0127291 0.00346214 0.00988965
0.0127116 0.0101208 0.0048979
0.0127417 0.000135677 0.00156854
0.012719 0.00845805 -9.71293e-05
0.0127391 0.000135266 0.00822767
0.0127158 0.0101226 0.00156964
0.0127134 0.010121 0.00822674
0.0127177 0.00845416 0.00989078
0.0127354 0.00180121 0.00989081
0.0127383 0.00180271 -9.67397e-05
0.0127169 0.0101225 0.00989186
0.0127196 0.0101235 -9.76397e-05
0.0127432 0.000134607 0.00989327
0.0127467 0.000135379 -9.82217e-05

CELLS 58 116
1 0
1 1
1 2
1 3
1 4
1 5
1 6
1 7
1 8
1 9
1 10
1 11
1 12
1 13
1 14
1 15
1 16
1 17
1 18
1 19
1 20
1 21
1 22
1 23
1 24
1 25
1 26
1 27
1 28
1 29
1 30
1 31
1 32
1 33
1 34
1 35
1 36
1 37
1 38
1 39
1 40
1 41
1 42
1 43
1 44
1 45
1 46
1 47
1 48
1 49
1 50
1 51
1 52
1 53
1 54
1 55
1 56
1 57

CELL_TYPES 58
1
1
1
1
1
1
1
1
1
1
1
1
1
1
1
1
1
1
1
1
1
1
1
1
1
1
1
1
1
1
1
1
1
1
1
1
1
1
1
1
1
1
1
1
1
1
1
1
1
1
1
1
1
1
1
1
1
1

POINT_DATA 58
FIELD FieldData 3

ExternalForceID_(#) 1 58 int
0
1
2
3
4
5
6
7
8
9
10
11
12
13
14
15
16
17
18
19
20
21
22
23
24
25
26
27
28
29
30
31
32
33
34
35
36
37
38
39
40
41
42
43
44
45
46
47
48
49
50
51
52
53
54
55
56
57

ExternalForceType_(0/1/2/3/4) 1 58 int
3
3
3
3
3
3
3
3
3
3
3
3
3
3
3
3
3
3
3
3
3
3
3
3
3
3
3
3
3
3
3
3
3
3
3
3
3
3
3
3
3
3
3
3
3
3
3
3
3
3
3
3
3
3
3
3
3
3

ExternalForce_(N) 3 58 double
0.001 0 0
0.001 0 0
0.001 0 0
0.001 0 0
0.001 0 0
0.001 0 0
0.001 0 0
0.001 0 0
0.001 0 0
0.001 0 0
0.001 0 0
0.001 0 0
0.001 0 0
0.001 0 0
0.001 0 0
0.001 0 0
0.001 0 0
0.001 0 0
0.001 0 0
0.001 0 0
0.001 0 0
0.001 0 0
0.001 0 0
0.001 0 0
0.001 0 0
0.001 0 0
0.001 0 0
0.001 0 0
0.001 0 0
0.001 0 0
0.001 0 0
0.001 0 0
0.001 0 0
0.001 0 0
0.001 0 0
0.001 0 0
0.001 0 0
0.001 0 0
0.001 0 0
0.001 0 0
0.001 0 0
0.001 0 0
0.001 0 0
0.001 0 0
0.001 0 0
0.001 0 0
0.001 0 0
0.001 0 0
0.001 0 0
0.001 0 0
0.001 0 0
0.001 0 0
0.001 0 0
0.001 0 0
0.001 0 0
0.001 0 0
0.001 0 0
0.001 0 0

