# vtk DataFile Version 4.2
vtk output
ASCII
DATASET UNSTRUCTURED_GRID

POINTS 58 double
0.0143708 0.00901832 0.00401842
0.014365 0.00598435 0.00812837
0.0143666 0.0073552 0.00693149
0.0143639 0.00162265 0.00400109
0.014367 0.00744937 0.00402123
0.0143682 0.00866049 0.00563352
0.0143647 0.0030564 0.00317934
0.0143672 0.00159362 0.00239502
0.0143726 0.00865552 0.00245215
0.0143627 0.00162182 0.005639
0.0143657 0.00704187 0.0055997
0.0143702 0.0087985 0.00733933
0.0143687 0.00712936 0.00245795
0.0143639 0.00155224 0.00730131
0.0143663 0.0044782 0.00236957
0.0143642 0.00595025 0.00648242
0.0143621 0.00320452 0.00673229
0.0143689 0.00769299 0.00840061
0.0143661 0.00592098 0.00319143
0.0143638 0.00419863 0.00831195
0.014369 0.00289268 0.00137727
0.0143707 0.00437641 0.00096183
0.014364 0.00450934 0.0039914
0.0143626 0.00470137 0.00703455
0.0143647 0.00262915 0.00837975
0.0143623 0.00450967 0.00565291
0.0143643 0.00592031 0.00482159
0.0143706 0.00595106 0.00142186
0.0143734 0.00766283 0.00120942
0.014377 0.00684125 -0.000162454
0.0143702 0.000190903 0.00316184
0.0143775 0.0101635 0.00648152
0.0143629 0.00306734 0.0048215
0.0143678 0.000190351 0.00648368
0.0143782 0.00894834 0.00105574
0.0143682 0.000190321 0.00482222
0.0143757 0.00517936 -0.000161301
0.0143795 0.0101631 0.00315936
0.0143726 0.00684069 0.00980443
0.014373 0.00894696 0.00858896
0.0143718 0.00140885 0.00105577
0.014371 0.00517788 0.00980502
0.0143667 0.00140733 0.00858968
0.0143754 0.00351668 -0.000161019
0.0143696 0.00351462 0.00980484
0.0143776 0.0101632 0.00482179
0.0143739 0.000190771 0.0015007
0.0143814 0.00850413 -0.000163067
0.0143693 0.000189967 0.00814557
0.0143834 0.010165 0.00150053
0.0143788 0.0101637 0.00814391
0.0143761 0.00850106 0.00980538
0.0143704 0.00185341 0.00980608
0.0143767 0.0018555 -0.000161849
0.0143818 0.0101654 0.0098068
0.0143884 0.010166 -0.000164344
0.0143728 0.000188792 0.00980867
0.0143796 0.000190495 -0.000163429

CELLS 58 116
1 0
1 1
1 2
1 3
1 4
1 5
1 6
1 7
1 8
1 9
1 10
1 11
1 12
1 13
1 14
1 15
1 16
1 17
1 18
1 19
1 20
1 21
1 22
1 23
1 24
1 25
1 26
1 27
1 28
1 29
1 30
1 31
1 32
1 33
1 34
1 35
1 36
1 37
1 38
1 39
1 40
1 41
1 42
1 43
1 44
1 45
1 46
1 47
1 48
1 49
1 50
1 51
1 52
1 53
1 54
1 55
1 56
1 57

CELL_TYPES 58
1
1
1
1
1
1
1
1
1
1
1
1
1
1
1
1
1
1
1
1
1
1
1
1
1
1
1
1
1
1
1
1
1
1
1
1
1
1
1
1
1
1
1
1
1
1
1
1
1
1
1
1
1
1
1
1
1
1

POINT_DATA 58
FIELD FieldData 3

ExternalForceID_(#) 1 58 int
0
1
2
3
4
5
6
7
8
9
10
11
12
13
14
15
16
17
18
19
20
21
22
23
24
25
26
27
28
29
30
31
32
33
34
35
36
37
38
39
40
41
42
43
44
45
46
47
48
49
50
51
52
53
54
55
56
57

ExternalForceType_(0/1/2/3/4) 1 58 int
3
3
3
3
3
3
3
3
3
3
3
3
3
3
3
3
3
3
3
3
3
3
3
3
3
3
3
3
3
3
3
3
3
3
3
3
3
3
3
3
3
3
3
3
3
3
3
3
3
3
3
3
3
3
3
3
3
3

ExternalForce_(N) 3 58 double
0.001 0 0
0.001 0 0
0.001 0 0
0.001 0 0
0.001 0 0
0.001 0 0
0.001 0 0
0.001 0 0
0.001 0 0
0.001 0 0
0.001 0 0
0.001 0 0
0.001 0 0
0.001 0 0
0.001 0 0
0.001 0 0
0.001 0 0
0.001 0 0
0.001 0 0
0.001 0 0
0.001 0 0
0.001 0 0
0.001 0 0
0.001 0 0
0.001 0 0
0.001 0 0
0.001 0 0
0.001 0 0
0.001 0 0
0.001 0 0
0.001 0 0
0.001 0 0
0.001 0 0
0.001 0 0
0.001 0 0
0.001 0 0
0.001 0 0
0.001 0 0
0.001 0 0
0.001 0 0
0.001 0 0
0.001 0 0
0.001 0 0
0.001 0 0
0.001 0 0
0.001 0 0
0.001 0 0
0.001 0 0
0.001 0 0
0.001 0 0
0.001 0 0
0.001 0 0
0.001 0 0
0.001 0 0
0.001 0 0
0.001 0 0
0.001 0 0
0.001 0 0

