# vtk DataFile Version 4.2
vtk output
ASCII
DATASET UNSTRUCTURED_GRID

POINTS 58 double
0.0143705 0.00901894 0.00401787
0.014365 0.00598498 0.00812782
0.0143665 0.00735581 0.00693094
0.0143641 0.00162334 0.00400054
0.0143667 0.00744999 0.00402068
0.014368 0.00866111 0.00563297
0.0143647 0.00305706 0.00317879
0.0143673 0.00159432 0.00239447
0.0143721 0.00865614 0.00245159
0.0143629 0.00162251 0.00563845
0.0143655 0.00704249 0.00559916
0.01437 0.00879911 0.00733878
0.0143684 0.00712998 0.00245739
0.0143643 0.00155293 0.00730077
0.0143662 0.00447884 0.00236902
0.0143642 0.00595087 0.00648187
0.0143624 0.00320518 0.00673174
0.0143689 0.00769361 0.00840006
0.0143659 0.00592161 0.00319088
0.014364 0.00419927 0.0083114
0.0143689 0.00289335 0.00137671
0.0143705 0.00437706 0.000961277
0.014364 0.00450999 0.00399085
0.0143627 0.00470201 0.007034
0.014365 0.00262983 0.0083792
0.0143624 0.00451031 0.00565236
0.0143642 0.00592094 0.00482104
0.0143702 0.00595169 0.00142131
0.0143729 0.00766344 0.00120886
0.0143765 0.00684188 -0.000163012
0.0143704 0.000191616 0.00316128
0.0143772 0.0101641 0.00648097
0.014363 0.003068 0.00482095
0.0143682 0.00019106 0.00648313
0.0143776 0.00894896 0.00105519
0.0143685 0.00019103 0.00482166
0.0143753 0.00518 -0.000161859
0.0143789 0.0101637 0.00315881
0.0143727 0.00684131 0.00980387
0.014373 0.00894759 0.00858841
0.0143718 0.00140955 0.00105521
0.0143713 0.00517851 0.00980446
0.0143672 0.00140803 0.00858914
0.0143752 0.00351734 -0.000161577
0.01437 0.00351527 0.00980429
0.0143772 0.0101639 0.00482124
0.014374 0.00019149 0.00150014
0.0143808 0.00850475 -0.00016362
0.0143698 0.000190682 0.00814502
0.0143828 0.0101657 0.00149998
0.0143786 0.0101644 0.00814335
0.0143761 0.00850169 0.00980482
0.0143709 0.0018541 0.00980554
0.0143766 0.0018562 -0.000162408
0.0143817 0.010166 0.00980624
0.0143877 0.0101666 -0.000164896
0.0143735 0.000189508 0.00980813
0.0143796 0.000191223 -0.000163992

CELLS 58 116
1 0
1 1
1 2
1 3
1 4
1 5
1 6
1 7
1 8
1 9
1 10
1 11
1 12
1 13
1 14
1 15
1 16
1 17
1 18
1 19
1 20
1 21
1 22
1 23
1 24
1 25
1 26
1 27
1 28
1 29
1 30
1 31
1 32
1 33
1 34
1 35
1 36
1 37
1 38
1 39
1 40
1 41
1 42
1 43
1 44
1 45
1 46
1 47
1 48
1 49
1 50
1 51
1 52
1 53
1 54
1 55
1 56
1 57

CELL_TYPES 58
1
1
1
1
1
1
1
1
1
1
1
1
1
1
1
1
1
1
1
1
1
1
1
1
1
1
1
1
1
1
1
1
1
1
1
1
1
1
1
1
1
1
1
1
1
1
1
1
1
1
1
1
1
1
1
1
1
1

POINT_DATA 58
FIELD FieldData 3

ExternalForceID_(#) 1 58 int
0
1
2
3
4
5
6
7
8
9
10
11
12
13
14
15
16
17
18
19
20
21
22
23
24
25
26
27
28
29
30
31
32
33
34
35
36
37
38
39
40
41
42
43
44
45
46
47
48
49
50
51
52
53
54
55
56
57

ExternalForceType_(0/1/2/3/4) 1 58 int
3
3
3
3
3
3
3
3
3
3
3
3
3
3
3
3
3
3
3
3
3
3
3
3
3
3
3
3
3
3
3
3
3
3
3
3
3
3
3
3
3
3
3
3
3
3
3
3
3
3
3
3
3
3
3
3
3
3

ExternalForce_(N) 3 58 double
0.001 0 0
0.001 0 0
0.001 0 0
0.001 0 0
0.001 0 0
0.001 0 0
0.001 0 0
0.001 0 0
0.001 0 0
0.001 0 0
0.001 0 0
0.001 0 0
0.001 0 0
0.001 0 0
0.001 0 0
0.001 0 0
0.001 0 0
0.001 0 0
0.001 0 0
0.001 0 0
0.001 0 0
0.001 0 0
0.001 0 0
0.001 0 0
0.001 0 0
0.001 0 0
0.001 0 0
0.001 0 0
0.001 0 0
0.001 0 0
0.001 0 0
0.001 0 0
0.001 0 0
0.001 0 0
0.001 0 0
0.001 0 0
0.001 0 0
0.001 0 0
0.001 0 0
0.001 0 0
0.001 0 0
0.001 0 0
0.001 0 0
0.001 0 0
0.001 0 0
0.001 0 0
0.001 0 0
0.001 0 0
0.001 0 0
0.001 0 0
0.001 0 0
0.001 0 0
0.001 0 0
0.001 0 0
0.001 0 0
0.001 0 0
0.001 0 0
0.001 0 0

