# vtk DataFile Version 4.2
vtk output
ASCII
DATASET UNSTRUCTURED_GRID

POINTS 58 double
0.01437 0.0090197 0.00401737
0.0143651 0.00598574 0.00812734
0.0143664 0.00735656 0.00693045
0.0143643 0.00162419 0.00400003
0.0143664 0.00745074 0.00402018
0.0143677 0.00866185 0.00563248
0.0143647 0.00305787 0.00317827
0.0143674 0.00159518 0.00239394
0.0143716 0.00865689 0.00245108
0.0143632 0.00162336 0.00563795
0.0143654 0.00704324 0.00559866
0.0143698 0.00879986 0.0073383
0.014368 0.00713073 0.00245688
0.0143647 0.00155378 0.00730028
0.014366 0.00447963 0.0023685
0.0143642 0.00595163 0.00648139
0.0143626 0.00320598 0.00673125
0.0143688 0.00769435 0.00839958
0.0143657 0.00592238 0.00319037
0.0143642 0.00420005 0.00831092
0.0143689 0.00289418 0.00137619
0.0143703 0.00437785 0.000960758
0.0143639 0.00451077 0.00399034
0.0143628 0.00470279 0.00703351
0.0143654 0.00263065 0.00837873
0.0143624 0.00451109 0.00565186
0.0143641 0.0059217 0.00482054
0.0143699 0.00595246 0.00142079
0.0143724 0.00766419 0.00120835
0.014376 0.00684264 -0.000163528
0.0143707 0.000192509 0.00316076
0.0143767 0.0101649 0.00648049
0.0143631 0.00306881 0.00482044
0.0143687 0.000191947 0.00648265
0.014377 0.00894971 0.00105467
0.0143689 0.000191917 0.00482116
0.014375 0.00518078 -0.000162377
0.0143784 0.0101645 0.00315831
0.0143728 0.00684206 0.0098034
0.0143728 0.00894834 0.00858793
0.0143718 0.00141042 0.00105468
0.0143715 0.00517929 0.00980399
0.0143676 0.00140889 0.00858867
0.014375 0.00351816 -0.000162097
0.0143703 0.00351607 0.00980382
0.0143767 0.0101646 0.00482075
0.0143742 0.000192391 0.00149961
0.0143802 0.0085055 -0.000164129
0.0143704 0.000191576 0.00814456
0.0143822 0.0101664 0.00149946
0.0143783 0.0101651 0.00814287
0.014376 0.00850244 0.00980435
0.0143714 0.00185495 0.00980507
0.0143765 0.00185706 -0.000162931
0.0143815 0.0101668 0.00980576
0.014387 0.0101674 -0.000165403
0.0143741 0.000190404 0.00980768
0.0143797 0.000192132 -0.000164524

CELLS 58 116
1 0
1 1
1 2
1 3
1 4
1 5
1 6
1 7
1 8
1 9
1 10
1 11
1 12
1 13
1 14
1 15
1 16
1 17
1 18
1 19
1 20
1 21
1 22
1 23
1 24
1 25
1 26
1 27
1 28
1 29
1 30
1 31
1 32
1 33
1 34
1 35
1 36
1 37
1 38
1 39
1 40
1 41
1 42
1 43
1 44
1 45
1 46
1 47
1 48
1 49
1 50
1 51
1 52
1 53
1 54
1 55
1 56
1 57

CELL_TYPES 58
1
1
1
1
1
1
1
1
1
1
1
1
1
1
1
1
1
1
1
1
1
1
1
1
1
1
1
1
1
1
1
1
1
1
1
1
1
1
1
1
1
1
1
1
1
1
1
1
1
1
1
1
1
1
1
1
1
1

POINT_DATA 58
FIELD FieldData 3

ExternalForceID_(#) 1 58 int
0
1
2
3
4
5
6
7
8
9
10
11
12
13
14
15
16
17
18
19
20
21
22
23
24
25
26
27
28
29
30
31
32
33
34
35
36
37
38
39
40
41
42
43
44
45
46
47
48
49
50
51
52
53
54
55
56
57

ExternalForceType_(0/1/2/3/4) 1 58 int
3
3
3
3
3
3
3
3
3
3
3
3
3
3
3
3
3
3
3
3
3
3
3
3
3
3
3
3
3
3
3
3
3
3
3
3
3
3
3
3
3
3
3
3
3
3
3
3
3
3
3
3
3
3
3
3
3
3

ExternalForce_(N) 3 58 double
0.001 0 0
0.001 0 0
0.001 0 0
0.001 0 0
0.001 0 0
0.001 0 0
0.001 0 0
0.001 0 0
0.001 0 0
0.001 0 0
0.001 0 0
0.001 0 0
0.001 0 0
0.001 0 0
0.001 0 0
0.001 0 0
0.001 0 0
0.001 0 0
0.001 0 0
0.001 0 0
0.001 0 0
0.001 0 0
0.001 0 0
0.001 0 0
0.001 0 0
0.001 0 0
0.001 0 0
0.001 0 0
0.001 0 0
0.001 0 0
0.001 0 0
0.001 0 0
0.001 0 0
0.001 0 0
0.001 0 0
0.001 0 0
0.001 0 0
0.001 0 0
0.001 0 0
0.001 0 0
0.001 0 0
0.001 0 0
0.001 0 0
0.001 0 0
0.001 0 0
0.001 0 0
0.001 0 0
0.001 0 0
0.001 0 0
0.001 0 0
0.001 0 0
0.001 0 0
0.001 0 0
0.001 0 0
0.001 0 0
0.001 0 0
0.001 0 0
0.001 0 0

