# vtk DataFile Version 4.2
vtk output
ASCII
DATASET UNSTRUCTURED_GRID

POINTS 58 double
0.0143712 0.00901866 0.00401708
0.0143661 0.0059847 0.00812695
0.0143675 0.00735553 0.00693009
0.0143646 0.00162312 0.00399976
0.0143674 0.00744969 0.0040199
0.0143688 0.00866082 0.00563216
0.0143652 0.00305681 0.00317802
0.0143676 0.0015941 0.0023937
0.0143727 0.00865584 0.0024508
0.0143636 0.0016223 0.00563766
0.0143664 0.0070422 0.00559834
0.014371 0.00879883 0.00733792
0.0143689 0.00712967 0.00245661
0.0143651 0.00155273 0.00729994
0.0143666 0.00447857 0.00236825
0.0143651 0.00595058 0.00648105
0.0143632 0.00320493 0.00673092
0.01437 0.00769333 0.00839917
0.0143664 0.00592131 0.00319011
0.014365 0.00419901 0.00831053
0.0143692 0.00289311 0.00137594
0.0143707 0.00437678 0.000960492
0.0143645 0.00450971 0.00399007
0.0143636 0.00470174 0.00703316
0.014366 0.0026296 0.00837834
0.0143631 0.00451003 0.00565155
0.0143649 0.00592064 0.00482025
0.0143706 0.00595139 0.00142053
0.0143733 0.00766312 0.00120807
0.0143767 0.00684156 -0.000163859
0.0143708 0.000191449 0.00316052
0.0143781 0.0101639 0.00648014
0.0143636 0.00306775 0.00482016
0.0143689 0.000190893 0.00648233
0.014378 0.00894866 0.00105438
0.0143691 0.000190862 0.00482088
0.0143755 0.00517969 -0.000162699
0.0143796 0.0101635 0.00315802
0.0143739 0.00684103 0.00980293
0.0143741 0.00894732 0.00858751
0.014372 0.00140934 0.00105443
0.0143724 0.00517825 0.00980353
0.0143681 0.00140783 0.00858827
0.0143754 0.00351708 -0.000162403
0.0143711 0.00351503 0.00980337
0.014378 0.0101636 0.00482044
0.0143743 0.000191325 0.00149936
0.0143811 0.00850444 -0.000164463
0.0143707 0.000190516 0.00814417
0.0143833 0.0101654 0.00149917
0.0143797 0.0101641 0.00814245
0.0143774 0.00850143 0.00980387
0.014372 0.0018539 0.00980462
0.0143767 0.00185598 -0.000163228
0.014383 0.0101658 0.00980527
0.0143881 0.0101664 -0.000165744
0.0143745 0.000189334 0.00980722
0.0143797 0.000191073 -0.000164815

CELLS 58 116
1 0
1 1
1 2
1 3
1 4
1 5
1 6
1 7
1 8
1 9
1 10
1 11
1 12
1 13
1 14
1 15
1 16
1 17
1 18
1 19
1 20
1 21
1 22
1 23
1 24
1 25
1 26
1 27
1 28
1 29
1 30
1 31
1 32
1 33
1 34
1 35
1 36
1 37
1 38
1 39
1 40
1 41
1 42
1 43
1 44
1 45
1 46
1 47
1 48
1 49
1 50
1 51
1 52
1 53
1 54
1 55
1 56
1 57

CELL_TYPES 58
1
1
1
1
1
1
1
1
1
1
1
1
1
1
1
1
1
1
1
1
1
1
1
1
1
1
1
1
1
1
1
1
1
1
1
1
1
1
1
1
1
1
1
1
1
1
1
1
1
1
1
1
1
1
1
1
1
1

POINT_DATA 58
FIELD FieldData 3

ExternalForceID_(#) 1 58 int
0
1
2
3
4
5
6
7
8
9
10
11
12
13
14
15
16
17
18
19
20
21
22
23
24
25
26
27
28
29
30
31
32
33
34
35
36
37
38
39
40
41
42
43
44
45
46
47
48
49
50
51
52
53
54
55
56
57

ExternalForceType_(0/1/2/3/4) 1 58 int
3
3
3
3
3
3
3
3
3
3
3
3
3
3
3
3
3
3
3
3
3
3
3
3
3
3
3
3
3
3
3
3
3
3
3
3
3
3
3
3
3
3
3
3
3
3
3
3
3
3
3
3
3
3
3
3
3
3

ExternalForce_(N) 3 58 double
0.001 0 0
0.001 0 0
0.001 0 0
0.001 0 0
0.001 0 0
0.001 0 0
0.001 0 0
0.001 0 0
0.001 0 0
0.001 0 0
0.001 0 0
0.001 0 0
0.001 0 0
0.001 0 0
0.001 0 0
0.001 0 0
0.001 0 0
0.001 0 0
0.001 0 0
0.001 0 0
0.001 0 0
0.001 0 0
0.001 0 0
0.001 0 0
0.001 0 0
0.001 0 0
0.001 0 0
0.001 0 0
0.001 0 0
0.001 0 0
0.001 0 0
0.001 0 0
0.001 0 0
0.001 0 0
0.001 0 0
0.001 0 0
0.001 0 0
0.001 0 0
0.001 0 0
0.001 0 0
0.001 0 0
0.001 0 0
0.001 0 0
0.001 0 0
0.001 0 0
0.001 0 0
0.001 0 0
0.001 0 0
0.001 0 0
0.001 0 0
0.001 0 0
0.001 0 0
0.001 0 0
0.001 0 0
0.001 0 0
0.001 0 0
0.001 0 0
0.001 0 0

