# vtk DataFile Version 4.2
vtk output
ASCII
DATASET UNSTRUCTURED_GRID

POINTS 58 double
0.0143087 0.00901232 0.00402383
0.0142999 0.00597667 0.00813804
0.0143027 0.00734845 0.00694011
0.0142978 0.00161182 0.00400653
0.0143043 0.00744299 0.0040267
0.0143054 0.00865434 0.00564072
0.0142997 0.00304658 0.00318392
0.0143013 0.00158268 0.00239897
0.0143106 0.00864938 0.00245612
0.014296 0.00161111 0.00564639
0.0143024 0.00703513 0.00560674
0.0143066 0.00879246 0.00734836
0.0143063 0.00712284 0.00246193
0.0142964 0.00154144 0.00731029
0.0143024 0.00446928 0.00237321
0.0142999 0.00594239 0.00649054
0.014296 0.00319477 0.00674077
0.0143044 0.00768631 0.00841053
0.014303 0.0059129 0.00319593
0.0142976 0.00418954 0.00832174
0.0143042 0.00288271 0.0013801
0.0143068 0.0043674 0.000964344
0.0142998 0.00450058 0.00399699
0.0142973 0.00469273 0.00704335
0.0142973 0.00261901 0.00838962
0.0142975 0.00450092 0.00566017
0.0143007 0.00591217 0.00482799
0.0143076 0.0059431 0.00142464
0.0143112 0.00765657 0.00121196
0.0143145 0.00683405 -0.000160511
0.0143028 0.000178188 0.00316647
0.0143144 0.010159 0.00648975
0.0142974 0.00305738 0.00482793
0.0142993 0.000177791 0.00649194
0.0143164 0.00894253 0.00105825
0.0143004 0.000177713 0.00482873
0.0143122 0.00517094 -0.000159491
0.0143175 0.0101586 0.0031641
0.0143068 0.00683352 0.00981589
0.014309 0.00894101 0.00859914
0.014306 0.0013976 0.00105843
0.0143044 0.00516955 0.00981642
0.0142984 0.00139637 0.00859978
0.014311 0.00350707 -0.00015924
0.0143019 0.00350497 0.00981613
0.0143152 0.0101587 0.00482799
0.0143069 0.000178084 0.00150381
0.0143194 0.00849822 -0.000161442
0.0143001 0.000177551 0.00815532
0.0143218 0.0101605 0.0015035
0.014315 0.010159 0.0081538
0.0143111 0.00849477 0.00981685
0.0143017 0.00184281 0.00981734
0.0143111 0.0018446 -0.000159999
0.0143174 0.0101605 0.00981817
0.014327 0.0101614 -0.000162537
0.014303 0.000176535 0.00981978
0.0143129 0.000177602 -0.000161336

CELLS 58 116
1 0
1 1
1 2
1 3
1 4
1 5
1 6
1 7
1 8
1 9
1 10
1 11
1 12
1 13
1 14
1 15
1 16
1 17
1 18
1 19
1 20
1 21
1 22
1 23
1 24
1 25
1 26
1 27
1 28
1 29
1 30
1 31
1 32
1 33
1 34
1 35
1 36
1 37
1 38
1 39
1 40
1 41
1 42
1 43
1 44
1 45
1 46
1 47
1 48
1 49
1 50
1 51
1 52
1 53
1 54
1 55
1 56
1 57

CELL_TYPES 58
1
1
1
1
1
1
1
1
1
1
1
1
1
1
1
1
1
1
1
1
1
1
1
1
1
1
1
1
1
1
1
1
1
1
1
1
1
1
1
1
1
1
1
1
1
1
1
1
1
1
1
1
1
1
1
1
1
1

POINT_DATA 58
FIELD FieldData 3

ExternalForceID_(#) 1 58 int
0
1
2
3
4
5
6
7
8
9
10
11
12
13
14
15
16
17
18
19
20
21
22
23
24
25
26
27
28
29
30
31
32
33
34
35
36
37
38
39
40
41
42
43
44
45
46
47
48
49
50
51
52
53
54
55
56
57

ExternalForceType_(0/1/2/3/4) 1 58 int
3
3
3
3
3
3
3
3
3
3
3
3
3
3
3
3
3
3
3
3
3
3
3
3
3
3
3
3
3
3
3
3
3
3
3
3
3
3
3
3
3
3
3
3
3
3
3
3
3
3
3
3
3
3
3
3
3
3

ExternalForce_(N) 3 58 double
0.001 0 0
0.001 0 0
0.001 0 0
0.001 0 0
0.001 0 0
0.001 0 0
0.001 0 0
0.001 0 0
0.001 0 0
0.001 0 0
0.001 0 0
0.001 0 0
0.001 0 0
0.001 0 0
0.001 0 0
0.001 0 0
0.001 0 0
0.001 0 0
0.001 0 0
0.001 0 0
0.001 0 0
0.001 0 0
0.001 0 0
0.001 0 0
0.001 0 0
0.001 0 0
0.001 0 0
0.001 0 0
0.001 0 0
0.001 0 0
0.001 0 0
0.001 0 0
0.001 0 0
0.001 0 0
0.001 0 0
0.001 0 0
0.001 0 0
0.001 0 0
0.001 0 0
0.001 0 0
0.001 0 0
0.001 0 0
0.001 0 0
0.001 0 0
0.001 0 0
0.001 0 0
0.001 0 0
0.001 0 0
0.001 0 0
0.001 0 0
0.001 0 0
0.001 0 0
0.001 0 0
0.001 0 0
0.001 0 0
0.001 0 0
0.001 0 0
0.001 0 0

