# vtk DataFile Version 4.2
vtk output
ASCII
DATASET UNSTRUCTURED_GRID

POINTS 58 double
0.0141379 0.0090267 0.00402633
0.014139 0.00598921 0.00814441
0.0141378 0.00736181 0.00694553
0.0141446 0.00162362 0.00400854
0.0141376 0.00745682 0.00402917
0.0141365 0.00866839 0.00564494
0.0141427 0.00305844 0.00318503
0.0141471 0.00159453 0.0023993
0.0141395 0.00866366 0.00245688
0.0141438 0.0016229 0.0056505
0.0141376 0.00704851 0.00561075
0.0141382 0.00880653 0.00735429
0.0141391 0.00713657 0.00246268
0.0141452 0.00155317 0.007316
0.0141416 0.0044814 0.00237352
0.0141383 0.00595478 0.00649556
0.014141 0.00320636 0.00674606
0.0141393 0.00769965 0.00841725
0.0141395 0.0059253 0.00319725
0.014141 0.00420119 0.0083282
0.0141462 0.00289477 0.00137937
0.014145 0.00437963 0.000963232
0.0141402 0.0045127 0.00399931
0.0141389 0.0047047 0.00704897
0.0141443 0.00263069 0.00839608
0.0141389 0.00451294 0.00566424
0.0141384 0.00592437 0.00483127
0.0141426 0.00595577 0.00142399
0.0141416 0.00767059 0.00121109
0.0141457 0.00684738 -0.000162426
0.0141519 0.000189008 0.00316743
0.0141416 0.0101753 0.00649508
0.0141417 0.00306888 0.00483104
0.0141504 0.000188503 0.00649698
0.0141433 0.00895733 0.00105741
0.0141506 0.000188441 0.0048318
0.0141474 0.00518353 -0.000161661
0.0141427 0.0101751 0.00316593
0.0141442 0.00684638 0.00982365
0.0141407 0.00895536 0.00860596
0.0141511 0.00140949 0.00105729
0.0141459 0.00518174 0.00982413
0.0141482 0.00140811 0.00860658
0.0141501 0.00351924 -0.000161534
0.0141473 0.00351642 0.00982378
0.0141415 0.0101752 0.00483132
0.0141547 0.000189196 0.00150298
0.0141462 0.00851288 -0.000163423
0.014152 0.000188544 0.00816191
0.0141457 0.010177 0.00150324
0.014143 0.0101753 0.00816031
0.0141444 0.00850877 0.0098246
0.0141508 0.0018548 0.00982503
0.0141541 0.00185668 -0.000162308
0.0141463 0.0101768 0.00982565
0.0141494 0.010178 -0.000164149
0.0141558 0.000187746 0.00982755
0.0141596 0.00018888 -0.00016363

CELLS 58 116
1 0
1 1
1 2
1 3
1 4
1 5
1 6
1 7
1 8
1 9
1 10
1 11
1 12
1 13
1 14
1 15
1 16
1 17
1 18
1 19
1 20
1 21
1 22
1 23
1 24
1 25
1 26
1 27
1 28
1 29
1 30
1 31
1 32
1 33
1 34
1 35
1 36
1 37
1 38
1 39
1 40
1 41
1 42
1 43
1 44
1 45
1 46
1 47
1 48
1 49
1 50
1 51
1 52
1 53
1 54
1 55
1 56
1 57

CELL_TYPES 58
1
1
1
1
1
1
1
1
1
1
1
1
1
1
1
1
1
1
1
1
1
1
1
1
1
1
1
1
1
1
1
1
1
1
1
1
1
1
1
1
1
1
1
1
1
1
1
1
1
1
1
1
1
1
1
1
1
1

POINT_DATA 58
FIELD FieldData 3

ExternalForceID_(#) 1 58 int
0
1
2
3
4
5
6
7
8
9
10
11
12
13
14
15
16
17
18
19
20
21
22
23
24
25
26
27
28
29
30
31
32
33
34
35
36
37
38
39
40
41
42
43
44
45
46
47
48
49
50
51
52
53
54
55
56
57

ExternalForceType_(0/1/2/3/4) 1 58 int
3
3
3
3
3
3
3
3
3
3
3
3
3
3
3
3
3
3
3
3
3
3
3
3
3
3
3
3
3
3
3
3
3
3
3
3
3
3
3
3
3
3
3
3
3
3
3
3
3
3
3
3
3
3
3
3
3
3

ExternalForce_(N) 3 58 double
0.001 0 0
0.001 0 0
0.001 0 0
0.001 0 0
0.001 0 0
0.001 0 0
0.001 0 0
0.001 0 0
0.001 0 0
0.001 0 0
0.001 0 0
0.001 0 0
0.001 0 0
0.001 0 0
0.001 0 0
0.001 0 0
0.001 0 0
0.001 0 0
0.001 0 0
0.001 0 0
0.001 0 0
0.001 0 0
0.001 0 0
0.001 0 0
0.001 0 0
0.001 0 0
0.001 0 0
0.001 0 0
0.001 0 0
0.001 0 0
0.001 0 0
0.001 0 0
0.001 0 0
0.001 0 0
0.001 0 0
0.001 0 0
0.001 0 0
0.001 0 0
0.001 0 0
0.001 0 0
0.001 0 0
0.001 0 0
0.001 0 0
0.001 0 0
0.001 0 0
0.001 0 0
0.001 0 0
0.001 0 0
0.001 0 0
0.001 0 0
0.001 0 0
0.001 0 0
0.001 0 0
0.001 0 0
0.001 0 0
0.001 0 0
0.001 0 0
0.001 0 0

