# vtk DataFile Version 4.2
vtk output
ASCII
DATASET UNSTRUCTURED_GRID

POINTS 58 double
0.01 0.00885053 0.00419359
0.01 0.00580816 0.00831736
0.01 0.00718191 0.00711644
0.01 0.00143586 0.00417514
0.01 0.00727418 0.00419576
0.01 0.00849157 0.00581511
0.01 0.00287343 0.00335182
0.01 0.00140616 0.00256446
0.01 0.00848692 0.00262374
0.01 0.00143551 0.00581971
0.01 0.00686719 0.00578184
0.01 0.00863025 0.00752641
0.01 0.00695361 0.00262895
0.01 0.0013659 0.00748679
0.01 0.00429792 0.00253898
0.01 0.0057735 0.00666667
0.01 0.00302218 0.00691532
0.01 0.0075208 0.00859127
0.01 0.00574334 0.00336387
0.01 0.0040177 0.00850214
0.01 0.00270918 0.00154168
0.01 0.00419538 0.00112517
0.01 0.0043297 0.00416652
0.01 0.00452174 0.00721958
0.01 0.00244495 0.00857025
0.01 0.00433013 0.00583333
0.01 0.005744 0.00499998
0.01 0.00577432 0.00158701
0.01 0.00748929 0.00137438
0.01 0.00666667 0
0.01 0 0.00333333
0.01 0.01 0.00666667
0.01 0.00288419 0.00499914
0.01 0 0.00666667
0.01 0.00877992 0.00122008
0.01 0 0.005
0.01 0.005 0
0.01 0.01 0.00333333
0.01 0.00666667 0.01
0.01 0.00877992 0.00877992
0.01 0.00122008 0.00122008
0.01 0.005 0.01
0.01 0.00122008 0.00877992
0.01 0.00333333 0
0.01 0.00333333 0.01
0.01 0.01 0.005
0.01 0 0.00166667
0.01 0.00833333 0
0.01 0 0.00833333
0.01 0.01 0.00166667
0.01 0.01 0.00833333
0.01 0.00833333 0.01
0.01 0.00166667 0.01
0.01 0.00166667 0
0.01 0.01 0.01
0.01 0.01 0
0.01 0 0.01
0.01 0 0

CELLS 58 116
1 0
1 1
1 2
1 3
1 4
1 5
1 6
1 7
1 8
1 9
1 10
1 11
1 12
1 13
1 14
1 15
1 16
1 17
1 18
1 19
1 20
1 21
1 22
1 23
1 24
1 25
1 26
1 27
1 28
1 29
1 30
1 31
1 32
1 33
1 34
1 35
1 36
1 37
1 38
1 39
1 40
1 41
1 42
1 43
1 44
1 45
1 46
1 47
1 48
1 49
1 50
1 51
1 52
1 53
1 54
1 55
1 56
1 57

CELL_TYPES 58
1
1
1
1
1
1
1
1
1
1
1
1
1
1
1
1
1
1
1
1
1
1
1
1
1
1
1
1
1
1
1
1
1
1
1
1
1
1
1
1
1
1
1
1
1
1
1
1
1
1
1
1
1
1
1
1
1
1

POINT_DATA 58
FIELD FieldData 3

ExternalForceID_(#) 1 58 int
0
1
2
3
4
5
6
7
8
9
10
11
12
13
14
15
16
17
18
19
20
21
22
23
24
25
26
27
28
29
30
31
32
33
34
35
36
37
38
39
40
41
42
43
44
45
46
47
48
49
50
51
52
53
54
55
56
57

ExternalForceType_(0/1/2/3/4) 1 58 int
3
3
3
3
3
3
3
3
3
3
3
3
3
3
3
3
3
3
3
3
3
3
3
3
3
3
3
3
3
3
3
3
3
3
3
3
3
3
3
3
3
3
3
3
3
3
3
3
3
3
3
3
3
3
3
3
3
3

ExternalForce_(N) 3 58 double
0.001 0 0
0.001 0 0
0.001 0 0
0.001 0 0
0.001 0 0
0.001 0 0
0.001 0 0
0.001 0 0
0.001 0 0
0.001 0 0
0.001 0 0
0.001 0 0
0.001 0 0
0.001 0 0
0.001 0 0
0.001 0 0
0.001 0 0
0.001 0 0
0.001 0 0
0.001 0 0
0.001 0 0
0.001 0 0
0.001 0 0
0.001 0 0
0.001 0 0
0.001 0 0
0.001 0 0
0.001 0 0
0.001 0 0
0.001 0 0
0.001 0 0
0.001 0 0
0.001 0 0
0.001 0 0
0.001 0 0
0.001 0 0
0.001 0 0
0.001 0 0
0.001 0 0
0.001 0 0
0.001 0 0
0.001 0 0
0.001 0 0
0.001 0 0
0.001 0 0
0.001 0 0
0.001 0 0
0.001 0 0
0.001 0 0
0.001 0 0
0.001 0 0
0.001 0 0
0.001 0 0
0.001 0 0
0.001 0 0
0.001 0 0
0.001 0 0
0.001 0 0

