# vtk DataFile Version 4.2
vtk output
ASCII
DATASET UNSTRUCTURED_GRID

POINTS 343 double
0.00161162 0.00421625 -2.06354e-05
0.00311697 0.005024 0.00213524
0 0.00419538 0.00112517
0.00277461 0.00199112 0.00190658
0.00744692 0.00251115 0.00493914
0.00744379 0.00393209 0.00630361
0.0109751 0.00492885 0.00486249
0.00896127 0.00497456 0.00358079
0.00984643 0.00342682 0.00678981
0.00717994 0.00509047 0.00490977
0.00602028 0.00120212 0.00992084
0.00760629 0.00218673 0.00780694
0.00603983 7.77811e-05 0.00824059
0.00289047 0.00204015 0.00799669
0.00616794 0.0026173 0.00991855
0.0100055 0.00658415 0.00682022
0.00922665 0.00630923 0.00506789
0.00324945 0.00222768 0.00510481
0 0.00143586 0.00417514
0.00228975 0.00349617 0.00400771
0.0098521 0.00333303 0.00304069
0.0111646 0.00237375 0.0049251
0 0.00270918 0.00154168
0.00599683 0.00151366 -7.19403e-05
0.00721831 0.00228958 0.00210882
0.00570481 0.00360515 0.00153277
0.00193518 2.4392e-05 0.00403554
0.00603622 7.83505e-05 0.00161345
0.00377287 0.00700229 -4.61032e-05
0.00277805 0.0080895 0.00190887
0.00587791 0.00632749 0.00157236
0.0115069 0.00814253 0.00784972
0.0114659 0.00497633 0.00787532
0.0120686 0.00624801 0.00579594
0.0143707 0.00901832 0.00401677
0.0108969 0.00778499 0.00482796
0.0123142 0.010149 0.00401493
0.0114759 0.00812905 0.0018767
0.00508583 0.00310488 0.00689552
0.00638323 0.00374824 0.00824159
0.00560575 0.0016785 0.00589861
0.00718965 0.00776465 0.00758473
0.00285103 0.00804543 0.00795345
0.00405215 0.0100501 0.00707539
0.00562178 0.00847418 0.00588633
0 0.00695361 0.00262895
0.00236173 0.00627045 0.00405758
0 0.0040177 0.00850214
0.00332188 0.00502915 0.00761942
0.00205561 0.00420081 0.00997387
0.0103154 0.00725814 0.00986366
0.00879757 0.00609049 0.008304
0.00294163 0.00798032 0.00470403
0.00436915 0.00700133 0.00641266
0.00227619 0.00610831 0.00589685
0.0143656 0.00598436 0.00812664
0 0.00718191 0.00711644
0.00227361 0.00580396 -2.88854e-05
0 0.00577432 0.00158701
0.014367 0.00735519 0.00692978
0.00412014 0.00340358 0.00994544
0.0143638 0.00162272 0.00399947
0.0115903 0.00211084 0.00183953
0.012085 0.00367414 0.00384964
0.00536714 0.00172277 0.00406051
0.00216028 0.0100277 0.00578713
0.00404828 5.24384e-05 0.00707706
0.00879308 0.00429256 0.00826254
0.0143668 0.00744935 0.00401959
0.0123055 0.000156569 0.00401641
0.00481268 0.00293603 -5.80742e-05
0.00388334 0.00159106 0.0099488
0.00406356 5.28708e-05 0.00278068
0.00689877 0.00528738 0.00746584
0.00454324 0.00320754 0.00310933
0 0.00849157 0.00581511
0.00700408 0.00376617 0.00369846
0.00220897 0.0027378 -2.79758e-05
0.00833014 0.00842734 0.00988944
0.00859208 0.0101044 0.00839427
0.00604517 0.0100742 0.00823941
0.00576573 0.00857476 0.00992316
0.0143684 0.00866048 0.00563185
0.00452033 0.0068944 0.0030925
0 0.00748929 0.00137438
0.00196831 0.00751499 -2.51617e-05
0 0.00287343 0.00335182
0 0.00580816 0.00831736
0 0.00429792 0.00253898
0.00364322 0.00434518 -4.44978e-05
0.00205515 0.00584565 0.00997377
0.00743913 0.00656932 0.00630574
0.00517442 0.00657788 0.00816705
0.00998582 0.00275393 0.00986831
0.0115305 0.00210503 0.00788681
0.0100186 0.00012854 0.00295915
0.00865148 0.00177574 0.00350585
0.0143644 0.00305643 0.00317772
0 0.00140616 0.00256446
0.00915937 0.00834059 0.0063046
0.00836406 0.00154389 -9.94703e-05
0.00867754 0.00366294 0.00149788
0.00452703 0.0100559 0.00576665
0.0123051 0.0101492 0.00567684
0.00367997 0.00145405 -4.48255e-05
0.00858926 0.000110962 0.00138976
0.00902847 0.00839933 0.00350458
0.0122971 0.000156488 0.00567822
0.00891704 0.00178733 0.00625268
0.00201255 0.0025896 0.0099743
0.0102355 0.00730858 -0.000122484
0.00742585 0.00778303 0.00207655
0.00854386 0.00620099 0.00149769
0 0.00686719 0.00578184
0.0143668 0.00159369 0.00239341
0.00254422 0.00364301 0.00637546
0.0143721 0.0086555 0.0024505
0.012092 0.00633874 0.0039834
0.0085971 0.0101051 0.00138796
0.0100144 0.000128272 0.00679995
0.0143629 0.00162191 0.00563735
0.0120682 0.00372521 0.00590813
0.00215962 2.72078e-05 0.00578794
0 0.0013659 0.00748679
0.00196 2.47605e-05 0.00750451
0.0143658 0.00704186 0.00559803
0.00836314 0.00859541 -0.000100969
0 0.0075208 0.00859127
0.00195547 0.00751152 0.00997507
0.00607669 0.00828162 0.00355073
0.0123534 0.0101483 0.00735238
0.0143706 0.0087985 0.0073376
0.00829157 0.001693 0.00989066
0.0104305 0.00431876 0.00986207
0 0.0057735 0.00666667
0.00196105 0.0100251 0.00750358
0 0.00863025 0.00752641
0.0123465 0.000158595 0.00235761
0.0143683 0.00712932 0.00245631
0.0121631 0.00649206 0.00201601
0.0122318 0.00597472 0.00983923
0.0107614 0.00151162 0.00985854
0.0123451 0.000158187 0.00735433
0.0143645 0.00155233 0.00729963
0 0.00143551 0.00581971
0.00858398 0.000110349 0.00839537
0.00604919 7.82804e-05 0.00332432
0.0114085 0.0048512 0.00189689
0.0143659 0.0044782 0.00236795
0.00607027 0.0100744 0.00658841
0.00406633 0.01005 0.00277924
0.00188032 2.39539e-05 0.00239428
0 0.00727418 0.00419576
0.0143645 0.00595024 0.00648074
0.0100269 0.0101219 0.00295713
0.0107912 0.00876727 0.0098572
0 0.00574334 0.00336387
0 0.0043297 0.00416652
0.00986997 0.00590647 0.00986959
0.0143625 0.00320456 0.00673061
0.00606433 7.83621e-05 0.00659012
0.00355264 0.0100439 0.00856535
0.0107644 0.00150499 -0.000127235
0.00829367 0.00676961 0.00989011
0.0143696 0.00769299 0.00839886
0.0123764 0.00770342 0.00983671
0.00994192 0.00314963 -0.000117764
0.00483036 0.00580576 -5.84795e-05
0.0108284 0.00876321 -0.000128982
0.0108105 0.010131 0.001256
0.00831343 0.00697119 -9.99299e-05
0.010027 0.00649611 0.00290972
0.0108025 0.0001398 0.00125721
0.00413612 0.00505087 0.00994538
0.00621555 0.00591137 0.00991752
0.00621412 0.0042446 0.00991772
0.0108066 0.0101296 0.00847532
0.00354908 4.56845e-05 0.00856664
0.0143658 0.00592096 0.00318981
0 0.00302218 0.00691532
0.0143645 0.00419865 0.00831023
0.0122276 0.00417274 -0.000143631
0.0143684 0.00289272 0.00137566
0 0.00244495 0.00857025
0.00350618 0.00861401 0.00995369
0.010798 0.00013902 0.0084768
0.0121992 0.00277784 0.00983958
0.0127217 0.00435318 0.0098321
0.00814882 0.0100993 0.0057294
0.00745097 0.00767649 0.00493811
0.00811006 0.0100988 0.00411251
0.0100224 0.0101217 0.00679848
0.00433526 0.00697029 0.00994261
0.00598554 0.00440702 -7.17591e-05
0.00406693 5.24637e-05 0.00435358
0.00452274 5.86282e-05 0.00576885
0.0143699 0.00437641 0.000960203
0.00522479 0.00840332 0.00152281
0.0143639 0.00450935 0.00398977
0.00958626 0.00589348 -0.000114695
0.0123549 0.0101492 0.00235611
0 0.00848692 0.00262374
0.00193556 0.0100251 0.00403471
0 0.00885053 0.00419359
0.00602723 0.00892568 -7.33007e-05
0.00604147 0.0100741 0.00161208
0.00718226 0.00488326 0.00229026
0.010381 0.00465295 -0.000123087
0.00810226 0.000104319 0.00411506
0.00814147 0.000104866 0.0057314
0.00188035 0.0100241 0.00239331
0.0123247 0.00260313 -0.000145077
0.014363 0.00470138 0.00703286
0.0102292 0.0101244 0.00487107
0.00824775 0.0034681 0.00989084
0.0035261 4.61286e-05 0.00131242
0.0143654 0.00262922 0.00837804
0.0034345 0.00483516 0.00495616
0.0083849 0.00443712 -9.97969e-05
0.0119636 0.00595639 -0.000140626
0.00787301 0.010096 0.007119
0.0143625 0.00450968 0.00565125
0.00776626 0.0100948 0.00267835
0.0102213 0.000130828 0.00487274
0.00406982 0.0100502 0.0043515
0 0.00452174 0.00721958
0.00649135 0.00730081 0.00991372
0.00786567 0.000101326 0.00712014
0.00517213 0.00514024 0.00353056
0.00610669 0.0100746 0.00492979
0.00610062 7.90878e-05 0.00493236
0.00526817 0.00528383 0.00610792
0 0.005744 0.00499998
0 0.00433013 0.00583333
0.00718628 0.00583555 -8.61598e-05
0.00716162 0.00642979 0.00346378
0.00775876 0.000100077 0.00268028
0.0143643 0.0059203 0.00481994
0.00529752 0.00647568 0.00477653
0.00824966 0.00510304 0.00989074
0.0143699 0.00595103 0.00142023
0 0.00666667 0
0.0123595 0.00767188 -0.000145416
0.00478561 6.27851e-05 -5.76532e-05
0 0.01 0.00666667
0.00718383 0.0100868 0.00990489
0 0.00288419 0.00499914
0.0143727 0.00766278 0.00120777
0.014376 0.00684121 -0.000164147
0 0.005 0.01
0.00718322 0.00297695 -8.57045e-05
0 0.005 0
0.0143699 0.000191016 0.00316022
0.0143777 0.0101636 0.00647982
0.00602914 0.00735045 -7.29277e-05
0.0143629 0.00306738 0.00481986
0.00718391 9.40357e-05 -8.61361e-05
0 0 0.00666667
0.00545195 0.00368635 0.00515733
0.00717737 9.23003e-05 0.00990605
0.0143681 0.000190469 0.00648203
0 0 0.005
0.0126333 0.0101513 0.00106988
0.0143774 0.00894831 0.00105408
0.0143683 0.000190433 0.00482058
0.0143747 0.00517932 -0.000162982
0.0017477 0.00124253 -2.21363e-05
0 0.00122008 0.00122008
0 0.00333333 0.01
0 0.00666667 0.01
0.0126329 0.0089322 -0.000148602
0.0143791 0.0101631 0.00315771
0.00605473 0.010074 0.00332209
0.0143735 0.0068407 0.00980263
0 0.00333333 0
0 0.00122008 0.00877992
0.00174591 2.20739e-05 0.00875825
0.00174575 0.00124208 0.0099777
0.0126285 0.0101499 0.00861369
0.00174674 0.00880202 0.00997758
0 0.00877992 0.00877992
0.0143738 0.00894699 0.0085872
0.00959165 0.0101163 -0.000116149
0.0143711 0.00140893 0.00105415
0.0017472 0.0100221 0.00875759
0.0126275 0.00893013 0.00983247
0.014372 0.00517791 0.00980323
0 0 0.00333333
0.00958304 0.000124827 -0.000114177
0.0126243 0.000163982 0.00107031
0.00173538 2.22821e-05 0.00118979
0 0.00877992 0.00122008
0.00174702 0.00880265 -2.24005e-05
0.00173519 0.0100221 0.00118889
0.0143675 0.00140743 0.00858796
0.0126213 0.00138253 0.00983357
0.00957578 0.000123204 0.00987449
0.0126267 0.00138436 -0.000148115
0.0126201 0.000162797 0.00861528
0.0143745 0.0035167 -0.000162681
0.00478487 0.0100581 0.00993649
0.00352801 0.0100436 0.00131129
0.00958434 0.0101151 0.00987344
0.0143706 0.00351467 0.00980307
0 0.01 0.005
0.00376596 0.00853481 -4.63075e-05
0.0143776 0.0101633 0.00482012
0 0.01 0.00333333
0 0.00166667 0
0.0143733 0.000190886 0.00149908
0 0.00166667 0.01
0 0.00833333 0
0.0143804 0.00850409 -0.000164758
0.01437 0.000190093 0.00814386
0.0143828 0.010165 0.00149887
0.0143794 0.0101638 0.00814214
0.00238866 0.0100292 0.00996896
0 0.01 0.00833333
0.0119939 0.0101436 -0.000142521
0.0119848 0.000156781 -0.000141647
0.0119789 0.0001549 0.00984288
0.0119875 0.0101418 0.0098416
0 0 0.00833333
0.0143771 0.00850109 0.00980357
0.00238913 3.14878e-05 -2.97329e-05
0 0 0.00166667
0.00478907 0.010059 -5.87644e-05
0.0143714 0.0018535 0.00980432
0.0143758 0.00185556 -0.000163502
0.00238611 3.05474e-05 0.00996959
0.00238943 0.0100299 -3.03e-05
0 0.01 0.00166667
0.0143828 0.0101655 0.00980497
0 0 0.01
0.0143875 0.010166 -0.000166047
0.0143738 0.00018891 0.00980691
0 0.01 0.01
0.0143787 0.000190628 -0.000165083
0 0.01 0
0 0 0
0.00719019 0.0100877 -8.78121e-05
0.00478041 6.15229e-05 0.00993724
0 0.00833333 0.01

CELLS 343 686
1 0
1 1
1 2
1 3
1 4
1 5
1 6
1 7
1 8
1 9
1 10
1 11
1 12
1 13
1 14
1 15
1 16
1 17
1 18
1 19
1 20
1 21
1 22
1 23
1 24
1 25
1 26
1 27
1 28
1 29
1 30
1 31
1 32
1 33
1 34
1 35
1 36
1 37
1 38
1 39
1 40
1 41
1 42
1 43
1 44
1 45
1 46
1 47
1 48
1 49
1 50
1 51
1 52
1 53
1 54
1 55
1 56
1 57
1 58
1 59
1 60
1 61
1 62
1 63
1 64
1 65
1 66
1 67
1 68
1 69
1 70
1 71
1 72
1 73
1 74
1 75
1 76
1 77
1 78
1 79
1 80
1 81
1 82
1 83
1 84
1 85
1 86
1 87
1 88
1 89
1 90
1 91
1 92
1 93
1 94
1 95
1 96
1 97
1 98
1 99
1 100
1 101
1 102
1 103
1 104
1 105
1 106
1 107
1 108
1 109
1 110
1 111
1 112
1 113
1 114
1 115
1 116
1 117
1 118
1 119
1 120
1 121
1 122
1 123
1 124
1 125
1 126
1 127
1 128
1 129
1 130
1 131
1 132
1 133
1 134
1 135
1 136
1 137
1 138
1 139
1 140
1 141
1 142
1 143
1 144
1 145
1 146
1 147
1 148
1 149
1 150
1 151
1 152
1 153
1 154
1 155
1 156
1 157
1 158
1 159
1 160
1 161
1 162
1 163
1 164
1 165
1 166
1 167
1 168
1 169
1 170
1 171
1 172
1 173
1 174
1 175
1 176
1 177
1 178
1 179
1 180
1 181
1 182
1 183
1 184
1 185
1 186
1 187
1 188
1 189
1 190
1 191
1 192
1 193
1 194
1 195
1 196
1 197
1 198
1 199
1 200
1 201
1 202
1 203
1 204
1 205
1 206
1 207
1 208
1 209
1 210
1 211
1 212
1 213
1 214
1 215
1 216
1 217
1 218
1 219
1 220
1 221
1 222
1 223
1 224
1 225
1 226
1 227
1 228
1 229
1 230
1 231
1 232
1 233
1 234
1 235
1 236
1 237
1 238
1 239
1 240
1 241
1 242
1 243
1 244
1 245
1 246
1 247
1 248
1 249
1 250
1 251
1 252
1 253
1 254
1 255
1 256
1 257
1 258
1 259
1 260
1 261
1 262
1 263
1 264
1 265
1 266
1 267
1 268
1 269
1 270
1 271
1 272
1 273
1 274
1 275
1 276
1 277
1 278
1 279
1 280
1 281
1 282
1 283
1 284
1 285
1 286
1 287
1 288
1 289
1 290
1 291
1 292
1 293
1 294
1 295
1 296
1 297
1 298
1 299
1 300
1 301
1 302
1 303
1 304
1 305
1 306
1 307
1 308
1 309
1 310
1 311
1 312
1 313
1 314
1 315
1 316
1 317
1 318
1 319
1 320
1 321
1 322
1 323
1 324
1 325
1 326
1 327
1 328
1 329
1 330
1 331
1 332
1 333
1 334
1 335
1 336
1 337
1 338
1 339
1 340
1 341
1 342

CELL_TYPES 343
1
1
1
1
1
1
1
1
1
1
1
1
1
1
1
1
1
1
1
1
1
1
1
1
1
1
1
1
1
1
1
1
1
1
1
1
1
1
1
1
1
1
1
1
1
1
1
1
1
1
1
1
1
1
1
1
1
1
1
1
1
1
1
1
1
1
1
1
1
1
1
1
1
1
1
1
1
1
1
1
1
1
1
1
1
1
1
1
1
1
1
1
1
1
1
1
1
1
1
1
1
1
1
1
1
1
1
1
1
1
1
1
1
1
1
1
1
1
1
1
1
1
1
1
1
1
1
1
1
1
1
1
1
1
1
1
1
1
1
1
1
1
1
1
1
1
1
1
1
1
1
1
1
1
1
1
1
1
1
1
1
1
1
1
1
1
1
1
1
1
1
1
1
1
1
1
1
1
1
1
1
1
1
1
1
1
1
1
1
1
1
1
1
1
1
1
1
1
1
1
1
1
1
1
1
1
1
1
1
1
1
1
1
1
1
1
1
1
1
1
1
1
1
1
1
1
1
1
1
1
1
1
1
1
1
1
1
1
1
1
1
1
1
1
1
1
1
1
1
1
1
1
1
1
1
1
1
1
1
1
1
1
1
1
1
1
1
1
1
1
1
1
1
1
1
1
1
1
1
1
1
1
1
1
1
1
1
1
1
1
1
1
1
1
1
1
1
1
1
1
1
1
1
1
1
1
1
1
1
1
1
1
1
1
1
1
1
1
1
1
1
1
1
1
1
1
1
1
1
1
1
1
1
1
1
1
1
1
1
1
1
1
1

POINT_DATA 343
FIELD FieldData 8

NodeID_(#) 1 343 int
0
1
2
3
4
5
6
7
8
9
10
11
12
13
14
15
16
17
18
19
20
21
22
23
24
25
26
27
28
29
30
31
32
33
34
35
36
37
38
39
40
41
42
43
44
45
46
47
48
49
50
51
52
53
54
55
56
57
58
59
60
61
62
63
64
65
66
67
68
69
70
71
72
73
74
75
76
77
78
79
80
81
82
83
84
85
86
87
88
89
90
91
92
93
94
95
96
97
98
99
100
101
102
103
104
105
106
107
108
109
110
111
112
113
114
115
116
117
118
119
120
121
122
123
124
125
126
127
128
129
130
131
132
133
134
135
136
137
138
139
140
141
142
143
144
145
146
147
148
149
150
151
152
153
154
155
156
157
158
159
160
161
162
163
164
165
166
167
168
169
170
171
172
173
174
175
176
177
178
179
180
181
182
183
184
185
186
187
188
189
190
191
192
193
194
195
196
197
198
199
200
201
202
203
204
205
206
207
208
209
210
211
212
213
214
215
216
217
218
219
220
221
222
223
224
225
226
227
228
229
230
231
232
233
234
235
236
237
238
239
240
241
242
243
244
245
246
247
248
249
250
251
252
253
254
255
256
257
258
259
260
261
262
263
264
265
266
267
268
269
270
271
272
273
274
275
276
277
278
279
280
281
282
283
284
285
286
287
288
289
290
291
292
293
294
295
296
297
298
299
300
301
302
303
304
305
306
307
308
309
310
311
312
313
314
315
316
317
318
319
320
321
322
323
324
325
326
327
328
329
330
331
332
333
334
335
336
337
338
339
340
341
342

Component_(#) 1 343 int
0
0
0
0
0
0
0
0
0
0
0
0
0
0
0
0
0
0
0
0
0
0
0
0
0
0
0
0
0
0
0
0
0
0
0
0
0
0
0
0
0
0
0
0
0
0
0
0
0
0
0
0
0
0
0
0
0
0
0
0
0
0
0
0
0
0
0
0
0
0
0
0
0
0
0
0
0
0
0
0
0
0
0
0
0
0
0
0
0
0
0
0
0
0
0
0
0
0
0
0
0
0
0
0
0
0
0
0
0
0
0
0
0
0
0
0
0
0
0
0
0
0
0
0
0
0
0
0
0
0
0
0
0
0
0
0
0
0
0
0
0
0
0
0
0
0
0
0
0
0
0
0
0
0
0
0
0
0
0
0
0
0
0
0
0
0
0
0
0
0
0
0
0
0
0
0
0
0
0
0
0
0
0
0
0
0
0
0
0
0
0
0
0
0
0
0
0
0
0
0
0
0
0
0
0
0
0
0
0
0
0
0
0
0
0
0
0
0
0
0
0
0
0
0
0
0
0
0
0
0
0
0
0
0
0
0
0
0
0
0
0
0
0
0
0
0
0
0
0
0
0
0
0
0
0
0
0
0
0
0
0
0
0
0
0
0
0
0
0
0
0
0
0
0
0
0
0
0
0
0
0
0
0
0
0
0
0
0
0
0
0
0
0
0
0
0
0
0
0
0
0
0
0
0
0
0
0
0
0
0
0
0
0
0
0
0
0
0
0
0
0
0
0
0
0
0
0
0
0
0
0
0
0
0
0
0
0
0
0
0
0
0
0

NodalMass_(kg) 1 343 double
3.15563e-06
1.41304e-05
2.20912e-06
1.71484e-05
8.42e-06
9.09306e-06
1.01179e-05
7.52198e-06
6.81096e-06
5.58223e-06
3.10888e-06
1.07575e-05
4.87011e-06
1.64955e-05
3.0246e-06
8.05984e-06
6.703e-06
1.0877e-05
4.18978e-06
8.16106e-06
6.14143e-06
1.17902e-05
2.23114e-06
4.25176e-06
1.09915e-05
7.41467e-06
4.21871e-06
3.92484e-06
3.08766e-06
1.31268e-05
7.72627e-06
1.65404e-05
1.19037e-05
7.97564e-06
3.81683e-06
1.11001e-05
3.81317e-06
1.39137e-05
6.37414e-06
8.00975e-06
7.6712e-06
1.21135e-05
1.6399e-05
2.78633e-06
8.93599e-06
2.58087e-06
7.57362e-06
4.23241e-06
1.31286e-05
3.80168e-06
2.7746e-06
7.16776e-06
1.21307e-05
5.11765e-06
8.19728e-06
4.58094e-06
2.79503e-06
3.26126e-06
4.12443e-06
2.11915e-06
3.35177e-06
3.61669e-06
1.56838e-05
7.33679e-06
8.24695e-06
5.00369e-06
2.82625e-06
7.20276e-06
3.26815e-06
4.18751e-06
2.02785e-06
2.42152e-06
3.11835e-06
5.97459e-06
5.87101e-06
4.09374e-06
5.45463e-06
2.28825e-06
4.49759e-06
4.38192e-06
4.50892e-06
4.39234e-06
4.27273e-06
5.32031e-06
1.53201e-06
2.38869e-06
2.02885e-06
4.38798e-06
3.17972e-06
3.14298e-06
4.61567e-06
5.87645e-06
8.18088e-06
2.48341e-06
1.53815e-05
3.49683e-06
7.35227e-06
2.01314e-06
2.0408e-06
7.98183e-06
4.41293e-06
7.1389e-06
1.20123e-06
5.03343e-06
1.61257e-06
4.12601e-06
8.73748e-06
4.37849e-06
7.97173e-06
2.13557e-06
3.38137e-06
9.48623e-06
7.40262e-06
1.80226e-06
2.10222e-06
7.98889e-06
1.87983e-06
7.44814e-06
4.19782e-06
2.37156e-06
4.31705e-06
6.06441e-06
4.30905e-06
2.16843e-06
1.8986e-06
1.81294e-06
3.89762e-06
2.44299e-06
1.65628e-06
8.01374e-06
1.64513e-06
2.3931e-06
3.01363e-06
2.99431e-06
1.36541e-06
1.87293e-06
2.09622e-06
1.94762e-06
1.87618e-06
6.37913e-06
4.58628e-06
2.02767e-06
1.61999e-06
2.41284e-06
3.8865e-06
4.44973e-06
2.29839e-06
1.17349e-05
3.11811e-06
1.354e-06
3.45063e-06
1.81846e-06
2.9382e-06
1.37381e-06
2.41464e-06
2.10451e-06
2.63927e-06
2.14166e-06
1.7943e-06
3.19976e-06
1.36989e-06
2.43489e-06
2.08158e-06
1.3601e-06
2.17203e-06
1.89924e-06
3.16996e-06
2.6119e-06
2.37677e-06
1.60225e-06
1.90684e-06
5.49206e-06
1.87878e-06
3.14313e-06
2.97301e-06
1.18454e-06
1.89263e-06
2.04166e-06
2.73572e-06
2.42405e-06
3.23083e-06
3.19752e-06
3.2142e-06
1.94492e-06
1.61196e-06
1.86876e-06
3.22435e-06
2.1114e-06
2.96917e-06
6.15288e-06
2.3097e-06
2.39729e-06
2.38029e-06
2.64508e-06
1.66557e-06
1.82377e-06
2.06583e-06
5.73271e-06
2.08467e-06
2.18324e-06
2.43522e-06
3.1188e-06
3.17316e-06
2.05447e-06
1.9592e-06
3.05718e-06
6.44327e-06
2.08796e-06
2.72615e-06
2.15709e-06
1.86812e-06
2.0028e-06
2.10999e-06
2.88994e-06
2.3222e-06
2.3979e-06
1.97629e-06
6.4127e-06
2.16225e-06
3.29198e-06
2.10223e-06
2.66566e-06
1.94415e-06
2.91865e-06
2.58116e-06
2.11703e-06
2.09534e-06
1.91719e-06
7.06046e-06
2.25203e-06
2.06378e-06
6.28159e-06
2.12147e-06
2.90924e-06
2.12921e-06
6.4487e-06
1.41701e-06
2.0682e-06
6.58062e-06
2.52584e-06
2.39732e-06
7.42191e-07
2.22368e-06
7.06751e-07
7.00657e-07
8.93749e-07
2.53536e-06
2.26535e-06
1.33607e-06
7.84725e-07
2.32303e-06
6.06694e-07
6.68276e-07
6.84307e-07
2.51242e-06
2.31629e-06
7.8367e-07
6.80839e-07
6.22692e-06
6.7471e-07
6.65305e-07
7.01158e-07
1.8232e-06
1.90695e-06
6.86722e-07
7.04792e-07
1.86445e-06
2.28572e-06
6.8045e-07
7.16005e-07
1.82373e-06
6.01079e-07
2.02791e-06
7.4579e-07
5.74423e-07
1.80052e-06
1.454e-06
2.2702e-06
1.80636e-06
2.15356e-06
1.79089e-06
1.79456e-06
6.8231e-07
2.24737e-06
1.45239e-06
1.79556e-06
6.97875e-07
6.24265e-07
6.62717e-07
1.44627e-06
1.40138e-06
2.15258e-06
1.82851e-06
1.3994e-06
1.43932e-06
2.19226e-06
6.97732e-07
1.77726e-06
1.79162e-06
6.54258e-07
7.3397e-07
2.34895e-06
7.10392e-07
6.56982e-07
6.26314e-07
2.18926e-06
6.12493e-07
6.03901e-07
5.92831e-07
5.12031e-07
5.11667e-07
4.9467e-07
4.97016e-07
4.96269e-07
5.33079e-07
4.94191e-07
4.97855e-07
4.86862e-07
4.90626e-07
4.94649e-07
4.94954e-07
4.91922e-07
4.89615e-07
4.96354e-07
4.95189e-07
4.82188e-07
1.10854e-06
5.3299e-07
5.44763e-07
5.36655e-07
5.15417e-07
5.01772e-07
5.53774e-07
5.53774e-07
5.53774e-07
5.53774e-07
5.53774e-07
5.53774e-07
5.50785e-07
5.50785e-07
7.45291e-07
7.11668e-07
4.9897e-07

NodalForce_(N) 3 343 double
-4.17477e-09 1.18691e-08 2.07773e-09
-1.38537e-07 1.58589e-07 -2.73051e-08
0.000281802 2.58112e-05 0.000584189
2.10189e-07 1.60487e-07 -3.54709e-08
3.63395e-07 7.10345e-07 -3.66885e-08
8.44576e-08 6.99841e-07 1.02047e-08
-1.13573e-07 1.66315e-06 7.50263e-08
-6.20573e-08 8.42011e-07 -1.68398e-08
1.35782e-07 9.35643e-07 6.74409e-08
-7.49612e-08 3.90407e-07 -2.06566e-08
1.39821e-07 1.92096e-07 4.73513e-08
4.63928e-07 9.53008e-07 1.0527e-07
3.45031e-07 3.04983e-07 4.83366e-08
2.95265e-07 1.34662e-07 -3.37052e-08
6.43127e-08 1.7314e-07 4.70551e-08
-5.08614e-07 1.06868e-06 1.07224e-07
-3.14348e-07 7.74393e-07 1.67137e-08
1.877e-07 1.44e-07 -2.03275e-08
0.000784153 0.000629413 0.000341104
3.15873e-08 3.97677e-08 1.01931e-09
2.27393e-07 8.6028e-07 -1.6475e-09
6.70487e-07 2.08393e-06 9.38567e-08
0.0017591 -0.000377818 0.000361461
2.31283e-07 2.79094e-07 2.95457e-08
5.50203e-07 9.20852e-07 -4.54258e-08
9.49524e-08 3.47158e-07 -6.68243e-09
8.8126e-08 1.20148e-08 -5.70006e-09
3.03274e-07 2.59504e-07 -1.53047e-08
-7.90614e-08 5.72158e-08 1.24877e-08
-3.7968e-07 1.00851e-07 -2.17003e-08
-2.37148e-07 3.37335e-07 8.41114e-10
-1.9025e-06 2.82526e-06 4.24634e-07
-3.16443e-07 2.08548e-06 2.78692e-07
-4.18411e-07 1.53453e-06 1.41361e-07
-4.47123e-07 9.70276e-07 9.72018e-08
-1.00568e-06 1.75038e-06 1.04451e-07
-5.7969e-07 7.36826e-07 6.82951e-08
-1.22085e-06 2.45486e-06 1.53466e-07
1.12158e-07 2.3547e-07 -7.31789e-10
6.31799e-08 4.43205e-07 6.78219e-08
3.57752e-07 3.92296e-07 -2.99589e-08
-8.87792e-07 8.45647e-07 1.09356e-07
-3.85344e-07 1.37371e-07 2.96315e-08
-1.84372e-07 6.11739e-08 8.74394e-09
-5.88843e-07 3.98387e-07 1.07225e-09
0.00105647 -8.36682e-06 -0.000352568
-8.74551e-08 5.67456e-08 -9.74457e-09
0.000391479 0.000594515 -0.000462152
-9.59937e-08 1.60071e-07 -3.79142e-10
-5.15201e-09 2.09813e-08 8.55976e-09
-2.54253e-07 3.83376e-07 9.50323e-08
-3.58223e-07 7.3103e-07 1.25397e-07
-3.05549e-07 1.01235e-07 -1.05463e-08
-1.44345e-07 1.10374e-07 2.07298e-09
-7.15699e-08 5.15154e-08 -4.17865e-09
-2.40199e-07 1.17122e-06 1.80478e-07
0.000810223 -0.000243947 3.52825e-05
-3.51617e-08 2.38184e-08 6.67335e-09
0.00192657 -0.000595209 0.000679838
-1.81078e-07 5.38173e-07 7.3097e-08
4.20144e-09 7.87913e-08 2.62842e-08
3.24189e-07 9.68813e-07 7.55029e-08
1.24795e-06 2.99621e-06 7.68968e-08
2.09849e-07 1.45498e-06 7.57875e-08
3.66038e-07 4.03889e-07 -5.54745e-08
-1.49664e-07 2.50011e-09 3.42202e-09
1.64992e-07 7.91202e-08 -5.50086e-09
-4.06303e-08 7.59472e-07 1.18586e-07
-2.40201e-07 8.3598e-07 7.77406e-08
5.22069e-07 8.89734e-07 3.94593e-08
4.03093e-08 6.99314e-08 1.07066e-08
5.77259e-08 5.65925e-08 1.69862e-08
1.71095e-07 9.91399e-08 -8.6542e-09
-1.11745e-07 3.67928e-07 3.76112e-08
7.05949e-08 1.61528e-07 -2.60571e-08
0.00134919 -0.000300742 -0.000490058
8.62855e-08 3.79725e-07 -3.2058e-08
1.3802e-08 8.12735e-09 4.38713e-09
-4.68863e-07 4.23577e-07 1.2727e-07
-6.13813e-07 4.32244e-07 7.90852e-08
-4.40705e-07 2.35243e-07 4.03807e-08
-3.27468e-07 2.16332e-07 8.71152e-08
-4.93892e-07 1.08143e-06 1.28129e-07
-1.63134e-07 1.35457e-07 -2.47097e-08
0.00120221 0.000334584 0.000219321
-4.30366e-08 4.82599e-09 4.14336e-09
0.00121262 -0.000140107 -0.000280441
0.00183917 -0.000238457 -0.000495116
0.00104969 0.000789388 -0.000567089
-8.52965e-09 5.71492e-08 1.02612e-08
-3.99746e-08 1.91915e-08 1.16654e-08
-2.80535e-07 4.31799e-07 1.78369e-08
-2.65593e-07 2.40369e-07 5.72399e-08
6.77442e-08 3.50688e-07 7.20564e-08
8.02671e-07 2.84849e-06 3.40729e-07
4.1132e-07 5.36169e-07 -8.08247e-09
5.04601e-07 8.55815e-07 -3.94961e-08
1.08957e-07 5.32504e-07 4.08332e-08
0.00178541 0.000801662 -5.41504e-05
-7.89278e-07 9.10222e-07 6.95423e-08
3.53248e-07 5.02355e-07 3.98555e-08
2.08444e-07 7.91799e-07 1.34758e-08
-8.60448e-08 3.57013e-08 -2.26474e-09
-8.06429e-07 9.58561e-07 1.04954e-07
5.1698e-08 4.41842e-08 4.9962e-09
4.56093e-07 4.90767e-07 -5.93201e-09
-7.9596e-07 9.93935e-07 2.77029e-09
5.07123e-07 9.2295e-07 6.37113e-08
4.76496e-07 9.53752e-07 3.59082e-08
1.7548e-08 5.29097e-09 3.42407e-09
-2.0173e-07 4.90276e-07 6.36609e-08
-6.45152e-07 7.52806e-07 9.59537e-09
-2.51103e-07 7.43865e-07 3.65437e-08
0.000671537 0.000380978 -0.00045444
2.07823e-07 5.66713e-07 3.92959e-08
3.84366e-08 5.51007e-08 -1.08401e-08
-1.86759e-07 4.82189e-07 4.7546e-08
-3.44801e-07 1.45421e-06 8.66324e-08
-5.20089e-07 4.43709e-07 3.7108e-08
2.44297e-07 3.57739e-07 2.47593e-08
3.50598e-07 1.14822e-06 1.08224e-07
1.06704e-07 1.19644e-06 9.81859e-08
9.6072e-08 1.91556e-08 -4.30126e-09
0.00145964 0.000188405 0.000397688
3.77197e-08 7.63304e-09 -9.94147e-10
-1.27632e-07 4.62991e-07 5.30611e-08
-3.32571e-07 3.95013e-07 5.8164e-08
0.00166284 0.00045753 -0.000771836
-2.44223e-08 4.03079e-09 5.54919e-09
-5.44053e-07 4.28471e-07 -3.08083e-08
-2.7637e-07 3.15118e-07 4.61241e-08
-3.06124e-07 6.003e-07 9.12911e-08
1.48337e-07 3.1978e-07 6.90189e-08
-3.97443e-08 4.37874e-07 9.45243e-08
0.00115034 -0.000192988 0.000418547
-4.75716e-08 3.15915e-09 -1.26677e-09
0.00146217 -0.000349983 0.000391582
2.59098e-07 4.21111e-07 1.19847e-08
-1.06261e-07 4.86223e-07 4.34404e-08
-2.65802e-07 1.27248e-06 7.61748e-08
-2.90199e-07 8.83698e-07 1.81375e-07
1.19195e-07 3.40465e-07 6.54356e-08
1.76454e-07 3.44684e-07 3.89871e-08
1.82836e-07 6.38593e-07 7.66394e-08
0.00104753 0.000557857 -0.000748929
4.07833e-07 5.11825e-07 7.35606e-08
1.86053e-07 1.5434e-07 -1.54348e-08
4.19036e-08 2.09847e-06 8.43822e-08
5.8035e-08 8.18193e-07 6.57594e-08
-1.36053e-07 7.33468e-08 5.64575e-09
-2.4613e-07 7.28857e-08 -5.42074e-09
3.29062e-08 6.87091e-09 -4.27178e-09
0.00232306 0.000721036 -2.18415e-05
-6.03775e-08 3.53884e-07 4.3238e-08
-3.27992e-07 3.32274e-07 1.51701e-08
-2.77709e-07 3.20752e-07 7.90538e-08
0.00151951 0.000109381 -0.000674493
0.000917476 0.000834386 0.00179321
-9.69192e-08 2.29241e-07 5.4667e-08
1.03665e-07 8.39862e-07 9.61792e-08
1.06483e-07 8.88098e-08 -1.40065e-10
-1.43959e-07 4.46768e-08 9.15595e-09
2.00394e-07 3.61068e-07 2.99237e-08
-8.92318e-08 1.22595e-07 3.68557e-08
-2.21674e-07 5.46991e-07 9.35482e-08
-2.12861e-07 3.66814e-07 7.97338e-08
1.60555e-07 4.61115e-07 3.98632e-08
-4.72712e-08 7.4966e-08 1.31668e-08
-2.29531e-07 3.81669e-07 5.10451e-08
-2.1458e-07 2.56027e-07 2.33302e-08
-9.14549e-08 1.86549e-07 2.7684e-08
-2.53591e-07 7.59496e-07 1.12408e-08
2.39254e-07 3.3033e-07 6.96195e-09
-5.07455e-08 5.89683e-08 2.84364e-08
-9.64284e-08 1.36969e-07 5.53933e-08
-6.96564e-09 5.85253e-08 2.04163e-08
-3.0761e-07 2.89384e-07 5.16972e-08
9.59476e-08 4.81702e-08 4.38546e-09
-7.2494e-08 7.13984e-07 5.86249e-08
0.00181924 -0.000126381 0.000260504
-8.35055e-09 8.35331e-07 1.25958e-07
1.07231e-07 6.57719e-07 6.74742e-08
2.19462e-07 8.59156e-07 6.36113e-08
0.00139716 -0.000200328 -0.000308535
-7.26826e-08 3.02856e-08 1.59614e-08
1.84663e-07 3.21764e-07 4.62643e-08
8.71201e-08 6.43765e-07 1.21767e-07
-3.5098e-08 4.44685e-07 8.56498e-08
-3.74864e-07 2.75113e-07 1.16919e-08
-4.2133e-07 4.76817e-07 -8.19497e-09
-2.82761e-07 2.15963e-07 8.43676e-10
-3.59754e-07 3.20977e-07 3.55977e-08
-8.52352e-08 4.24824e-08 2.96061e-08
9.37827e-09 1.3158e-07 1.66244e-08
8.86887e-08 5.45013e-08 -1.1543e-08
1.14811e-07 6.69391e-08 -1.08026e-08
5.92717e-08 5.47476e-07 4.77802e-08
-3.40099e-07 2.40815e-07 2.41849e-09
1.84255e-08 5.45149e-07 4.53673e-08
-4.71811e-08 2.85657e-07 3.3391e-08
-3.52033e-07 4.77855e-07 4.10277e-08
0.00153231 -0.000317395 -8.91568e-05
-8.01853e-08 3.8606e-09 1.04232e-09
0.00134509 -0.000625813 2.67562e-05
-1.44918e-07 1.12736e-07 1.79376e-08
-3.02239e-07 1.70665e-07 8.13538e-09
-3.42214e-08 4.47827e-07 -8.31707e-09
2.63964e-08 3.21032e-07 3.15918e-08
2.6744e-07 2.96449e-07 -2.1691e-08
2.01662e-07 2.32791e-07 -4.84058e-10
-4.96577e-08 2.32358e-09 1.49227e-10
1.54649e-07 4.23916e-07 3.99848e-08
-2.32308e-08 5.46389e-07 6.89341e-08
-4.18967e-07 4.04996e-07 2.70956e-08
2.06437e-08 2.20261e-07 5.48521e-08
1.1378e-07 6.14125e-08 -7.49548e-09
8.15472e-08 5.19231e-07 7.45512e-08
-3.45185e-08 9.62253e-08 -1.60416e-08
2.87045e-08 2.21691e-07 2.18628e-08
-5.96208e-08 6.49291e-07 7.82561e-08
-2.65017e-07 1.79965e-07 1.91061e-08
2.45551e-09 6.948e-07 7.17591e-08
-2.29635e-07 1.71158e-07 4.95409e-09
3.24056e-07 4.57444e-07 7.58999e-09
-1.76737e-07 5.41752e-08 -5.16466e-09
0.00163814 0.000293947 0.000733239
-1.29352e-07 1.11073e-07 4.42538e-08
1.70409e-07 1.92432e-07 1.41889e-08
-8.21332e-08 2.41865e-07 -3.7193e-08
-2.28404e-07 1.23225e-07 -4.20015e-09
1.68881e-07 1.38613e-07 -1.8444e-08
-7.7324e-08 2.16733e-07 -1.19743e-08
0.00202852 -0.00142966 8.43718e-05
0.00189828 0.000716203 -0.0011555
-4.42548e-08 1.49744e-07 2.10477e-08
-2.54151e-07 4.46228e-07 -3.5024e-08
1.38973e-07 1.44724e-07 -7.15618e-09
-7.27409e-08 5.37467e-07 5.19535e-08
-1.91669e-07 2.29633e-07 -2.33487e-08
-7.02338e-08 2.22246e-07 6.35604e-08
-4.3198e-08 6.30655e-07 5.66518e-08
0.000825912 0.000734651 1.1347e-05
-1.4415e-07 4.50937e-07 6.0044e-08
4.55012e-08 3.38173e-08 1.52549e-09
0.000896817 -1.50793e-05 -0.000978565
-1.06982e-07 6.33141e-08 2.29089e-08
0.00206876 -0.00115497 0.000145266
-1.46925e-07 5.87838e-07 5.84657e-08
-4.78025e-08 3.50235e-07 4.58432e-08
0.000789806 -0.00107062 0.000114975
9.10859e-08 1.84892e-07 1.90491e-08
0.00074039 0.00118984 -7.20952e-05
8.87337e-08 1.80344e-07 1.20982e-08
-1.09184e-07 1.67694e-07 2.35659e-08
-1.16132e-07 1.26627e-07 2.22756e-08
1.05575e-07 6.10314e-07 5.48271e-08
7.43804e-08 7.17985e-08 4.74468e-09
0.000661587 -0.000176474 0.000798317
6.89055e-08 2.47131e-07 -2.63276e-08
5.13127e-08 6.27688e-08 1.69805e-08
7.76103e-08 1.78257e-07 1.84111e-08
0.000418971 -0.000437177 0.00102966
-2.52534e-07 3.7523e-07 4.08885e-08
-1.91211e-07 4.91229e-07 5.29e-08
8.56024e-08 1.84381e-07 1.50159e-08
7.71267e-09 1.88146e-07 2.28772e-08
1.88371e-08 1.24423e-08 3.05866e-09
0.000999096 0.000536827 4.58413e-05
0.000672046 -0.000988274 0.000176505
0.000721953 -0.000984484 9.75596e-05
-1.81316e-07 3.82456e-07 5.24988e-08
-8.63139e-08 1.50421e-07 1.57298e-08
-2.04687e-07 1.11927e-07 -3.95789e-09
-6.29436e-08 1.87858e-07 3.79074e-08
0.000762792 0.00048369 0.000136372
0.000408018 0.00036791 -0.000520308
2.611e-08 8.07377e-09 3.18439e-09
2.48078e-08 9.44315e-09 1.27238e-09
-3.13419e-07 3.58612e-07 6.50985e-08
-3.72066e-08 8.7605e-09 6.68931e-09
0.00062834 -0.000204378 -0.000299113
-2.48532e-07 4.47701e-07 8.04006e-08
-8.57174e-08 8.88638e-08 1.37492e-08
2.50371e-07 6.09426e-07 4.35765e-08
-3.37623e-08 4.40166e-09 -1.63328e-09
-2.62712e-07 3.58921e-07 7.86191e-08
-2.60229e-08 1.78502e-07 3.43075e-08
0.000375956 -0.000428567 0.000772946
8.13226e-08 9.54791e-08 6.63184e-09
2.02044e-07 3.24736e-07 1.54648e-08
2.3387e-08 7.69319e-09 -5.56245e-09