# vtk DataFile Version 4.2
vtk output
ASCII
DATASET UNSTRUCTURED_GRID

POINTS 343 double
0.00161161 0.00421627 -2.06479e-05
0.00311697 0.00502406 0.00213518
0 0.00419538 0.00112517
0.00277473 0.00199119 0.00190653
0.0074476 0.00251167 0.00493869
0.00744449 0.00393253 0.00630312
0.0109756 0.0049298 0.00486144
0.00896149 0.00497519 0.00358011
0.00984747 0.00342765 0.00678892
0.00718028 0.00509086 0.00490935
0.00602148 0.00120254 0.00992041
0.00760743 0.0021873 0.00780637
0.00604098 7.82404e-05 0.00824021
0.00289082 0.00204021 0.00799663
0.00616901 0.00261767 0.00991809
0.010006 0.00658491 0.00681931
0.00922692 0.00630988 0.00506716
0.00324971 0.00222776 0.00510474
0 0.00143586 0.00417514
0.00228986 0.0034962 0.00400769
0.0098525 0.00333387 0.00303984
0.0111656 0.00237485 0.00492401
0 0.00270918 0.00154168
0.00599692 0.00151408 -7.2308e-05
0.00721863 0.00229011 0.0021083
0.00570484 0.00360543 0.00153243
0.00193538 2.44159e-05 0.00403551
0.00603666 7.87847e-05 0.00161306
0.00377257 0.00700237 -4.62425e-05
0.00277795 0.00808953 0.00190881
0.00587771 0.0063277 0.001572
0.0115074 0.00814355 0.00784849
0.011467 0.00497737 0.00787411
0.0120691 0.00624913 0.00579466
0.0143705 0.00901985 0.00401508
0.0108969 0.00778591 0.00482693
0.0123138 0.0101502 0.00401363
0.0114753 0.00813006 0.00187554
0.00508635 0.00310509 0.00689531
0.00638404 0.00374856 0.00824114
0.00560642 0.00167884 0.00589837
0.00719002 0.00776506 0.00758421
0.00285118 0.00804548 0.00795339
0.00405213 0.0100503 0.00707527
0.00562181 0.00847444 0.00588609
0 0.00695361 0.00262895
0.00236177 0.0062705 0.00405754
0 0.0040177 0.00850214
0.00332213 0.00502921 0.00761934
0.00205584 0.00420084 0.00997384
0.0103163 0.00725897 0.00986258
0.00879836 0.00609108 0.00830321
0.00294166 0.00798035 0.00470397
0.00436932 0.00700144 0.00641252
0.0022763 0.00610834 0.00589682
0.0143667 0.00598589 0.00812486
0 0.00718191 0.00711644
0.00227351 0.005804 -2.89198e-05
0 0.00577432 0.00158701
0.0143676 0.00735671 0.00692802
0.00412081 0.00340372 0.00994522
0.0143649 0.00162443 0.00399776
0.0115908 0.00211203 0.00183835
0.0120856 0.00367534 0.00384838
0.00536763 0.00172308 0.00406029
0.00216027 0.0100277 0.0057871
0.00404895 5.26539e-05 0.00707693
0.00879412 0.00429318 0.00826176
0.0143669 0.00745086 0.0040179
0.0123067 0.000157958 0.0040151
0.00481258 0.00293623 -5.83108e-05
0.0038841 0.00159124 0.00994861
0.00406401 5.30896e-05 0.00278054
0.0068994 0.00528772 0.00746537
0.00454345 0.0032077 0.00310918
0 0.00849157 0.00581511
0.0070044 0.00376657 0.00369805
0.00220897 0.00273783 -2.80037e-05
0.00833082 0.00842793 0.00988868
0.00859233 0.010105 0.00839348
0.00604534 0.0100746 0.008239
0.00576622 0.00857508 0.00992277
0.0143686 0.008662 0.00563012
0.00452031 0.00689452 0.00309235
0 0.00748929 0.00137438
0.0019682 0.00751499 -2.51772e-05
0 0.00287343 0.00335182
0 0.00580816 0.00831736
0 0.00429792 0.00253898
0.00364305 0.00434528 -4.46303e-05
0.00205537 0.00584567 0.00997374
0.00743948 0.00656973 0.00630526
0.00517486 0.00657804 0.00816676
0.00998745 0.00275483 0.0098673
0.0115321 0.00210622 0.0078856
0.0100195 0.000129546 0.00295826
0.00865213 0.00177647 0.00350519
0.0143651 0.00305807 0.00317601
0 0.00140616 0.00256446
0.00915957 0.00834126 0.00630386
0.00836422 0.00154462 -0.000100164
0.00867764 0.0036636 0.00149715
0.00452693 0.0100561 0.00576648
0.012305 0.0101504 0.00567553
0.00368 0.00145423 -4.4972e-05
0.00858984 0.000111749 0.00138902
0.00902819 0.00839998 0.00350388
0.0122987 0.00015787 0.0056769
0.00891815 0.0017881 0.00625198
0.00201281 0.00258962 0.00997427
0.0102348 0.00730938 -0.000123481
0.00742546 0.00778346 0.00207603
0.00854357 0.00620153 0.00149698
0 0.00686719 0.00578184
0.0143676 0.00159541 0.0023917
0.00254442 0.00364305 0.00637541
0.0143717 0.00865702 0.00244879
0.0120922 0.00633986 0.00398215
0.00859625 0.0101058 0.00138724
0.010016 0.000129289 0.00679906
0.0143643 0.00162361 0.00563563
0.0120692 0.0037264 0.00590684
0.00215988 2.7247e-05 0.00578791
0 0.0013659 0.00748679
0.00196027 2.48063e-05 0.0075045
0.0143663 0.00704337 0.00559631
0.00836228 0.00859597 -0.00010168
0 0.0075208 0.00859127
0.00195565 0.00751156 0.00997503
0.0060765 0.00828191 0.00355045
0.0123536 0.0101495 0.007351
0.0143711 0.00880001 0.00733584
0.00829316 0.0016937 0.00988992
0.0104319 0.00431964 0.00986098
0 0.0057735 0.00666667
0.00196109 0.0100251 0.00750356
0 0.00863025 0.00752641
0.0123475 0.000160005 0.00235629
0.0143681 0.00713083 0.00245461
0.0121629 0.00649319 0.00201473
0.0122331 0.00597588 0.00983783
0.0107633 0.00151272 0.0098574
0.012347 0.0001596 0.00735299
0.0143662 0.00155405 0.00729789
0 0.00143551 0.00581971
0.00858562 0.000111144 0.00839465
0.00604985 7.87356e-05 0.00332401
0.0114085 0.00485224 0.00189576
0.0143661 0.00447979 0.00236626
0.00607023 0.0100748 0.00658809
0.00406605 0.0100501 0.00277911
0.00188047 2.39768e-05 0.00239426
0 0.00727418 0.00419576
0.0143654 0.00595178 0.00647901
0.0100262 0.0101227 0.00295625
0.010792 0.00876823 0.00985603
0 0.00574334 0.00336387
0 0.0043297 0.00416652
0.00987112 0.00590723 0.00986858
0.0143639 0.00320618 0.00672887
0.00606533 7.88265e-05 0.00658982
0.00355274 0.010044 0.00856521
0.0107646 0.00150609 -0.000128317
0.00829456 0.00677014 0.00988934
0.0143704 0.00769451 0.00839708
0.0123774 0.0077046 0.00983527
0.00994187 0.00315051 -0.000118716
0.00483005 0.0058059 -5.87298e-05
0.0108274 0.00876414 -0.000130087
0.0108096 0.0101319 0.00125492
0.00831281 0.00697172 -0.000100637
0.0100269 0.00649687 0.00290884
0.0108032 0.000140957 0.00125613
0.00413669 0.00505099 0.00994515
0.00621636 0.00591164 0.00991704
0.00621506 0.0042449 0.00991723
0.0108069 0.0101306 0.00847417
0.00354976 4.58816e-05 0.00856653
0.014366 0.0059225 0.00318812
0 0.00302218 0.00691532
0.0143659 0.00420023 0.00830846
0.0122274 0.00417397 -0.000144963
0.0143687 0.00289437 0.00137397
0 0.00244495 0.00857025
0.00350651 0.00861414 0.00995352
0.0108 0.000140189 0.00847571
0.0122011 0.00277911 0.0098382
0.0127234 0.00435447 0.00983062
0.00814869 0.0100999 0.00572883
0.00745101 0.00767692 0.00493765
0.00810967 0.0100993 0.00411196
0.0100225 0.0101225 0.00679758
0.00433576 0.00697039 0.00994236
0.00598529 0.00440729 -7.21612e-05
0.00406745 5.27e-05 0.00435345
0.00452341 5.88993e-05 0.00576869
0.01437 0.004378 0.000958507
0.00522444 0.00840355 0.00152252
0.0143645 0.00451093 0.00398806
0.00958577 0.00589419 -0.000115592
0.0123541 0.0101504 0.0023548
0 0.00848692 0.00262374
0.00193553 0.0100251 0.00403468
0 0.00885053 0.00419359
0.00602655 0.008926 -7.37133e-05
0.00604086 0.0100744 0.00161171
0.00718227 0.00488364 0.00228978
0.0103807 0.00465384 -0.000124108
0.00810318 0.000105048 0.00411449
0.00814265 0.0001056 0.00573084
0.00188026 0.0100241 0.0023933
0.0123248 0.00260444 -0.000146422
0.0143642 0.00470295 0.00703111
0.0102289 0.0101253 0.00487015
0.00824908 0.0034687 0.0098901
0.00352638 4.62894e-05 0.0013123
0.0143671 0.00263089 0.00837627
0.00343465 0.00483523 0.00495607
0.00838465 0.0044377 -0.000100529
0.0119631 0.0059575 -0.000141922
0.00787306 0.0100966 0.00711841
0.0143634 0.00451125 0.00564952
0.00776567 0.0100954 0.00267782
0.0102225 0.000131864 0.00487181
0.00406964 0.0100504 0.00435139
0 0.00452174 0.00721958
0.00649203 0.00730113 0.00991321
0.00786701 0.000102017 0.00711958
0.00517225 0.00514042 0.00353036
0.00610645 0.0100749 0.00492949
0.00610146 7.95569e-05 0.00493208
0.00526848 0.00528401 0.0061077
0 0.005744 0.00499998
0 0.00433013 0.00583333
0.00718586 0.0058359 -8.67249e-05
0.00716161 0.00643016 0.00346335
0.00775946 0.000100756 0.00267972
0.0143648 0.00592183 0.00481822
0.00529764 0.00647586 0.00477634
0.00825076 0.00510356 0.00988998
0.0143698 0.00595258 0.00141854
0 0.00666667 0
0.0123587 0.00767304 -0.000146779
0.00478581 6.31575e-05 -5.79611e-05
0 0.01 0.00666667
0.00718428 0.0100873 0.00990425
0 0.00288419 0.00499914
0.0143722 0.00766428 0.00120607
0.0143754 0.00684274 -0.000165879
0 0.005 0.01
0.00718316 0.00297743 -8.62462e-05
0 0.005 0
0.0143711 0.000192793 0.00315851
0.0143778 0.0101651 0.00647808
0.00602862 0.00735071 -7.3339e-05
0.0143639 0.003069 0.00481814
0.0071842 9.46892e-05 -8.67164e-05
0 0 0.00666667
0.00545234 0.00368657 0.00515711
0.00717893 9.29127e-05 0.00990547
0.01437 0.000192234 0.00648031
0 0 0.005
0.0126323 0.0101526 0.00106848
0.0143767 0.00894983 0.00105238
0.0143698 0.000192198 0.00481886
0.0143744 0.00518088 -0.000164711
0.00174774 0.00124258 -2.21556e-05
0 0.00122008 0.00122008
0 0.00333333 0.01
0 0.00666667 0.01
0.0126319 0.00893342 -0.00015001
0.0143786 0.0101647 0.00315601
0.00605432 0.0100744 0.00332181
0.0143748 0.00684222 0.00980081
0 0.00333333 0
0 0.00122008 0.00877992
0.00174618 2.21279e-05 0.00875822
0.001746 0.00124211 0.00997767
0.012629 0.0101512 0.0086122
0.00174688 0.00880205 0.00997755
0 0.00877992 0.00877992
0.0143745 0.00894852 0.0085854
0.00959052 0.0101171 -0.000117048
0.0143717 0.00141066 0.00105245
0.00174726 0.0100221 0.00875753
0.0126284 0.00893139 0.00983097
0.0143736 0.00517948 0.00980142
0 0 0.00333333
0.00958344 0.00012582 -0.000115111
0.0126251 0.000165463 0.00106891
0.0017355 2.23197e-05 0.00118974
0 0.00877992 0.00122008
0.00174689 0.00880266 -2.24215e-05
0.00173507 0.0100221 0.00118886
0.0143695 0.00140916 0.0085862
0.0126234 0.00138396 0.00983211
0.00957778 0.000124151 0.00987354
0.012627 0.0013858 -0.000149517
0.0126223 0.000164271 0.00861386
0.0143745 0.00351833 -0.000164403
0.00478517 0.0100584 0.00993615
0.00352765 0.0100437 0.00131117
0.00958486 0.0101159 0.00987242
0.0143725 0.00351628 0.00980127
0 0.01 0.005
0.00376556 0.0085349 -4.64601e-05
0.0143773 0.0101648 0.00481841
0 0.01 0.00333333
0 0.00166667 0
0.0143742 0.000192676 0.00149737
0 0.00166667 0.01
0 0.00833333 0
0.0143795 0.0085056 -0.000166476
0.0143721 0.000191873 0.00814211
0.0143819 0.0101666 0.00149716
0.0143798 0.0101654 0.00814034
0.00238878 0.0100293 0.00996885
0 0.01 0.00833333
0.0119927 0.0101447 -0.000143825
0.0119853 0.000158172 -0.000142959
0.0119812 0.000156269 0.00984154
0.0119882 0.010143 0.00984019
0 0 0.00833333
0.0143781 0.00850264 0.00980174
0.00238927 3.16081e-05 -2.9819e-05
0 0 0.00166667
0.0047884 0.0100592 -5.90251e-05
0.0143736 0.00185522 0.00980253
0.0143761 0.00185728 -0.000165223
0.00238656 3.06469e-05 0.00996951
0.00238916 0.0100299 -3.03678e-05
0 0.01 0.00166667
0.0143835 0.0101671 0.00980312
0 0 0.01
0.0143863 0.0101675 -0.000167767
0.0143763 0.000190689 0.00980513
0 0.01 0.01
0.0143793 0.000192447 -0.000166817
0 0.01 0
0 0 0
0.00718925 0.0100882 -8.83578e-05
0.00478149 6.18283e-05 0.00993695
0 0.00833333 0.01

CELLS 343 686
1 0
1 1
1 2
1 3
1 4
1 5
1 6
1 7
1 8
1 9
1 10
1 11
1 12
1 13
1 14
1 15
1 16
1 17
1 18
1 19
1 20
1 21
1 22
1 23
1 24
1 25
1 26
1 27
1 28
1 29
1 30
1 31
1 32
1 33
1 34
1 35
1 36
1 37
1 38
1 39
1 40
1 41
1 42
1 43
1 44
1 45
1 46
1 47
1 48
1 49
1 50
1 51
1 52
1 53
1 54
1 55
1 56
1 57
1 58
1 59
1 60
1 61
1 62
1 63
1 64
1 65
1 66
1 67
1 68
1 69
1 70
1 71
1 72
1 73
1 74
1 75
1 76
1 77
1 78
1 79
1 80
1 81
1 82
1 83
1 84
1 85
1 86
1 87
1 88
1 89
1 90
1 91
1 92
1 93
1 94
1 95
1 96
1 97
1 98
1 99
1 100
1 101
1 102
1 103
1 104
1 105
1 106
1 107
1 108
1 109
1 110
1 111
1 112
1 113
1 114
1 115
1 116
1 117
1 118
1 119
1 120
1 121
1 122
1 123
1 124
1 125
1 126
1 127
1 128
1 129
1 130
1 131
1 132
1 133
1 134
1 135
1 136
1 137
1 138
1 139
1 140
1 141
1 142
1 143
1 144
1 145
1 146
1 147
1 148
1 149
1 150
1 151
1 152
1 153
1 154
1 155
1 156
1 157
1 158
1 159
1 160
1 161
1 162
1 163
1 164
1 165
1 166
1 167
1 168
1 169
1 170
1 171
1 172
1 173
1 174
1 175
1 176
1 177
1 178
1 179
1 180
1 181
1 182
1 183
1 184
1 185
1 186
1 187
1 188
1 189
1 190
1 191
1 192
1 193
1 194
1 195
1 196
1 197
1 198
1 199
1 200
1 201
1 202
1 203
1 204
1 205
1 206
1 207
1 208
1 209
1 210
1 211
1 212
1 213
1 214
1 215
1 216
1 217
1 218
1 219
1 220
1 221
1 222
1 223
1 224
1 225
1 226
1 227
1 228
1 229
1 230
1 231
1 232
1 233
1 234
1 235
1 236
1 237
1 238
1 239
1 240
1 241
1 242
1 243
1 244
1 245
1 246
1 247
1 248
1 249
1 250
1 251
1 252
1 253
1 254
1 255
1 256
1 257
1 258
1 259
1 260
1 261
1 262
1 263
1 264
1 265
1 266
1 267
1 268
1 269
1 270
1 271
1 272
1 273
1 274
1 275
1 276
1 277
1 278
1 279
1 280
1 281
1 282
1 283
1 284
1 285
1 286
1 287
1 288
1 289
1 290
1 291
1 292
1 293
1 294
1 295
1 296
1 297
1 298
1 299
1 300
1 301
1 302
1 303
1 304
1 305
1 306
1 307
1 308
1 309
1 310
1 311
1 312
1 313
1 314
1 315
1 316
1 317
1 318
1 319
1 320
1 321
1 322
1 323
1 324
1 325
1 326
1 327
1 328
1 329
1 330
1 331
1 332
1 333
1 334
1 335
1 336
1 337
1 338
1 339
1 340
1 341
1 342

CELL_TYPES 343
1
1
1
1
1
1
1
1
1
1
1
1
1
1
1
1
1
1
1
1
1
1
1
1
1
1
1
1
1
1
1
1
1
1
1
1
1
1
1
1
1
1
1
1
1
1
1
1
1
1
1
1
1
1
1
1
1
1
1
1
1
1
1
1
1
1
1
1
1
1
1
1
1
1
1
1
1
1
1
1
1
1
1
1
1
1
1
1
1
1
1
1
1
1
1
1
1
1
1
1
1
1
1
1
1
1
1
1
1
1
1
1
1
1
1
1
1
1
1
1
1
1
1
1
1
1
1
1
1
1
1
1
1
1
1
1
1
1
1
1
1
1
1
1
1
1
1
1
1
1
1
1
1
1
1
1
1
1
1
1
1
1
1
1
1
1
1
1
1
1
1
1
1
1
1
1
1
1
1
1
1
1
1
1
1
1
1
1
1
1
1
1
1
1
1
1
1
1
1
1
1
1
1
1
1
1
1
1
1
1
1
1
1
1
1
1
1
1
1
1
1
1
1
1
1
1
1
1
1
1
1
1
1
1
1
1
1
1
1
1
1
1
1
1
1
1
1
1
1
1
1
1
1
1
1
1
1
1
1
1
1
1
1
1
1
1
1
1
1
1
1
1
1
1
1
1
1
1
1
1
1
1
1
1
1
1
1
1
1
1
1
1
1
1
1
1
1
1
1
1
1
1
1
1
1
1
1
1
1
1
1
1
1
1
1
1
1
1
1
1
1
1
1
1
1
1
1
1
1
1
1
1
1
1
1
1
1
1
1
1
1
1
1

POINT_DATA 343
FIELD FieldData 8

NodeID_(#) 1 343 int
0
1
2
3
4
5
6
7
8
9
10
11
12
13
14
15
16
17
18
19
20
21
22
23
24
25
26
27
28
29
30
31
32
33
34
35
36
37
38
39
40
41
42
43
44
45
46
47
48
49
50
51
52
53
54
55
56
57
58
59
60
61
62
63
64
65
66
67
68
69
70
71
72
73
74
75
76
77
78
79
80
81
82
83
84
85
86
87
88
89
90
91
92
93
94
95
96
97
98
99
100
101
102
103
104
105
106
107
108
109
110
111
112
113
114
115
116
117
118
119
120
121
122
123
124
125
126
127
128
129
130
131
132
133
134
135
136
137
138
139
140
141
142
143
144
145
146
147
148
149
150
151
152
153
154
155
156
157
158
159
160
161
162
163
164
165
166
167
168
169
170
171
172
173
174
175
176
177
178
179
180
181
182
183
184
185
186
187
188
189
190
191
192
193
194
195
196
197
198
199
200
201
202
203
204
205
206
207
208
209
210
211
212
213
214
215
216
217
218
219
220
221
222
223
224
225
226
227
228
229
230
231
232
233
234
235
236
237
238
239
240
241
242
243
244
245
246
247
248
249
250
251
252
253
254
255
256
257
258
259
260
261
262
263
264
265
266
267
268
269
270
271
272
273
274
275
276
277
278
279
280
281
282
283
284
285
286
287
288
289
290
291
292
293
294
295
296
297
298
299
300
301
302
303
304
305
306
307
308
309
310
311
312
313
314
315
316
317
318
319
320
321
322
323
324
325
326
327
328
329
330
331
332
333
334
335
336
337
338
339
340
341
342

Component_(#) 1 343 int
0
0
0
0
0
0
0
0
0
0
0
0
0
0
0
0
0
0
0
0
0
0
0
0
0
0
0
0
0
0
0
0
0
0
0
0
0
0
0
0
0
0
0
0
0
0
0
0
0
0
0
0
0
0
0
0
0
0
0
0
0
0
0
0
0
0
0
0
0
0
0
0
0
0
0
0
0
0
0
0
0
0
0
0
0
0
0
0
0
0
0
0
0
0
0
0
0
0
0
0
0
0
0
0
0
0
0
0
0
0
0
0
0
0
0
0
0
0
0
0
0
0
0
0
0
0
0
0
0
0
0
0
0
0
0
0
0
0
0
0
0
0
0
0
0
0
0
0
0
0
0
0
0
0
0
0
0
0
0
0
0
0
0
0
0
0
0
0
0
0
0
0
0
0
0
0
0
0
0
0
0
0
0
0
0
0
0
0
0
0
0
0
0
0
0
0
0
0
0
0
0
0
0
0
0
0
0
0
0
0
0
0
0
0
0
0
0
0
0
0
0
0
0
0
0
0
0
0
0
0
0
0
0
0
0
0
0
0
0
0
0
0
0
0
0
0
0
0
0
0
0
0
0
0
0
0
0
0
0
0
0
0
0
0
0
0
0
0
0
0
0
0
0
0
0
0
0
0
0
0
0
0
0
0
0
0
0
0
0
0
0
0
0
0
0
0
0
0
0
0
0
0
0
0
0
0
0
0
0
0
0
0
0
0
0
0
0
0
0
0
0
0
0
0
0
0
0
0
0
0
0
0
0
0
0
0
0
0
0
0
0
0
0

NodalMass_(kg) 1 343 double
3.15563e-06
1.41304e-05
2.20912e-06
1.71484e-05
8.42e-06
9.09306e-06
1.01179e-05
7.52198e-06
6.81096e-06
5.58223e-06
3.10888e-06
1.07575e-05
4.87011e-06
1.64955e-05
3.0246e-06
8.05984e-06
6.703e-06
1.0877e-05
4.18978e-06
8.16106e-06
6.14143e-06
1.17902e-05
2.23114e-06
4.25176e-06
1.09915e-05
7.41467e-06
4.21871e-06
3.92484e-06
3.08766e-06
1.31268e-05
7.72627e-06
1.65404e-05
1.19037e-05
7.97564e-06
3.81683e-06
1.11001e-05
3.81317e-06
1.39137e-05
6.37414e-06
8.00975e-06
7.6712e-06
1.21135e-05
1.6399e-05
2.78633e-06
8.93599e-06
2.58087e-06
7.57362e-06
4.23241e-06
1.31286e-05
3.80168e-06
2.7746e-06
7.16776e-06
1.21307e-05
5.11765e-06
8.19728e-06
4.58094e-06
2.79503e-06
3.26126e-06
4.12443e-06
2.11915e-06
3.35177e-06
3.61669e-06
1.56838e-05
7.33679e-06
8.24695e-06
5.00369e-06
2.82625e-06
7.20276e-06
3.26815e-06
4.18751e-06
2.02785e-06
2.42152e-06
3.11835e-06
5.97459e-06
5.87101e-06
4.09374e-06
5.45463e-06
2.28825e-06
4.49759e-06
4.38192e-06
4.50892e-06
4.39234e-06
4.27273e-06
5.32031e-06
1.53201e-06
2.38869e-06
2.02885e-06
4.38798e-06
3.17972e-06
3.14298e-06
4.61567e-06
5.87645e-06
8.18088e-06
2.48341e-06
1.53815e-05
3.49683e-06
7.35227e-06
2.01314e-06
2.0408e-06
7.98183e-06
4.41293e-06
7.1389e-06
1.20123e-06
5.03343e-06
1.61257e-06
4.12601e-06
8.73748e-06
4.37849e-06
7.97173e-06
2.13557e-06
3.38137e-06
9.48623e-06
7.40262e-06
1.80226e-06
2.10222e-06
7.98889e-06
1.87983e-06
7.44814e-06
4.19782e-06
2.37156e-06
4.31705e-06
6.06441e-06
4.30905e-06
2.16843e-06
1.8986e-06
1.81294e-06
3.89762e-06
2.44299e-06
1.65628e-06
8.01374e-06
1.64513e-06
2.3931e-06
3.01363e-06
2.99431e-06
1.36541e-06
1.87293e-06
2.09622e-06
1.94762e-06
1.87618e-06
6.37913e-06
4.58628e-06
2.02767e-06
1.61999e-06
2.41284e-06
3.8865e-06
4.44973e-06
2.29839e-06
1.17349e-05
3.11811e-06
1.354e-06
3.45063e-06
1.81846e-06
2.9382e-06
1.37381e-06
2.41464e-06
2.10451e-06
2.63927e-06
2.14166e-06
1.7943e-06
3.19976e-06
1.36989e-06
2.43489e-06
2.08158e-06
1.3601e-06
2.17203e-06
1.89924e-06
3.16996e-06
2.6119e-06
2.37677e-06
1.60225e-06
1.90684e-06
5.49206e-06
1.87878e-06
3.14313e-06
2.97301e-06
1.18454e-06
1.89263e-06
2.04166e-06
2.73572e-06
2.42405e-06
3.23083e-06
3.19752e-06
3.2142e-06
1.94492e-06
1.61196e-06
1.86876e-06
3.22435e-06
2.1114e-06
2.96917e-06
6.15288e-06
2.3097e-06
2.39729e-06
2.38029e-06
2.64508e-06
1.66557e-06
1.82377e-06
2.06583e-06
5.73271e-06
2.08467e-06
2.18324e-06
2.43522e-06
3.1188e-06
3.17316e-06
2.05447e-06
1.9592e-06
3.05718e-06
6.44327e-06
2.08796e-06
2.72615e-06
2.15709e-06
1.86812e-06
2.0028e-06
2.10999e-06
2.88994e-06
2.3222e-06
2.3979e-06
1.97629e-06
6.4127e-06
2.16225e-06
3.29198e-06
2.10223e-06
2.66566e-06
1.94415e-06
2.91865e-06
2.58116e-06
2.11703e-06
2.09534e-06
1.91719e-06
7.06046e-06
2.25203e-06
2.06378e-06
6.28159e-06
2.12147e-06
2.90924e-06
2.12921e-06
6.4487e-06
1.41701e-06
2.0682e-06
6.58062e-06
2.52584e-06
2.39732e-06
7.42191e-07
2.22368e-06
7.06751e-07
7.00657e-07
8.93749e-07
2.53536e-06
2.26535e-06
1.33607e-06
7.84725e-07
2.32303e-06
6.06694e-07
6.68276e-07
6.84307e-07
2.51242e-06
2.31629e-06
7.8367e-07
6.80839e-07
6.22692e-06
6.7471e-07
6.65305e-07
7.01158e-07
1.8232e-06
1.90695e-06
6.86722e-07
7.04792e-07
1.86445e-06
2.28572e-06
6.8045e-07
7.16005e-07
1.82373e-06
6.01079e-07
2.02791e-06
7.4579e-07
5.74423e-07
1.80052e-06
1.454e-06
2.2702e-06
1.80636e-06
2.15356e-06
1.79089e-06
1.79456e-06
6.8231e-07
2.24737e-06
1.45239e-06
1.79556e-06
6.97875e-07
6.24265e-07
6.62717e-07
1.44627e-06
1.40138e-06
2.15258e-06
1.82851e-06
1.3994e-06
1.43932e-06
2.19226e-06
6.97732e-07
1.77726e-06
1.79162e-06
6.54258e-07
7.3397e-07
2.34895e-06
7.10392e-07
6.56982e-07
6.26314e-07
2.18926e-06
6.12493e-07
6.03901e-07
5.92831e-07
5.12031e-07
5.11667e-07
4.9467e-07
4.97016e-07
4.96269e-07
5.33079e-07
4.94191e-07
4.97855e-07
4.86862e-07
4.90626e-07
4.94649e-07
4.94954e-07
4.91922e-07
4.89615e-07
4.96354e-07
4.95189e-07
4.82188e-07
1.10854e-06
5.3299e-07
5.44763e-07
5.36655e-07
5.15417e-07
5.01772e-07
5.53774e-07
5.53774e-07
5.53774e-07
5.53774e-07
5.53774e-07
5.53774e-07
5.50785e-07
5.50785e-07
7.45291e-07
7.11668e-07
4.9897e-07

NodalForce_(N) 3 343 double
8.97337e-08 -4.85171e-09 1.02172e-08
5.48079e-07 -7.07364e-08 1.92046e-07
0.000228052 -3.62504e-07 0.000576833
3.24989e-07 -1.3947e-07 1.78203e-07
-4.38475e-07 -6.64983e-07 1.03615e-06
-7.61113e-07 -5.68372e-07 1.25339e-06
6.97329e-08 -1.42179e-06 3.15186e-06
5.42439e-07 -6.60899e-07 1.46811e-06
-9.41349e-07 -8.78394e-07 1.78964e-06
3.81556e-09 -2.80302e-07 6.36909e-07
-7.0234e-07 -2.36255e-07 4.19636e-07
-1.99198e-06 -1.00655e-06 1.84094e-06
-9.25625e-07 -4.15727e-07 5.65627e-07
-7.16851e-07 -1.35645e-07 2.42128e-07
-6.27044e-07 -1.80139e-07 4.34208e-07
-5.07335e-07 -8.7617e-07 2.21172e-06
1.75926e-07 -5.9785e-07 1.42521e-06
-1.38406e-07 -1.00943e-07 1.94182e-07
0.000829586 0.000594067 0.000383772
5.34002e-08 -1.29905e-08 4.7839e-08
4.08191e-07 -8.00643e-07 1.50097e-06
-7.81002e-07 -2.118e-06 3.82818e-06
0.00178917 -0.000304184 0.00039829
4.82155e-07 -2.96806e-07 4.82719e-07
6.65796e-07 -9.29045e-07 1.61353e-06
6.77774e-07 -2.76495e-07 7.37185e-07
-5.58409e-08 -1.60324e-08 2.81567e-08
9.27234e-08 -2.90336e-07 4.2372e-07
3.9029e-07 -1.79893e-08 1.35196e-07
6.20329e-07 -5.96647e-09 1.73192e-07
9.83384e-07 -1.58734e-07 8.03786e-07
-1.32189e-06 -2.61155e-06 6.28341e-06
-2.03951e-06 -1.87229e-06 4.4254e-06
-4.16185e-08 -1.32564e-06 3.09258e-06
7.92882e-07 -9.20024e-07 1.9864e-06
1.00002e-06 -1.50835e-06 3.40707e-06
8.38414e-07 -7.47712e-07 1.51106e-06
3.9166e-06 -2.058e-06 4.892e-06
-4.04713e-07 -1.78073e-07 3.80964e-07
-1.08554e-06 -3.54213e-07 1.06872e-06
-5.87017e-07 -4.16042e-07 4.68935e-07
-6.87588e-07 -7.20214e-07 1.89753e-06
-3.34556e-07 -1.21653e-07 2.59314e-07
4.01416e-08 -6.33636e-08 1.0231e-07
2.13833e-07 -3.21977e-07 6.15532e-07
0.00101188 -6.06014e-05 -0.000343845
1.11337e-07 -3.12231e-08 6.45421e-08
0.0004403 0.00055227 -0.000434477
-3.64536e-07 -7.30106e-08 2.82505e-07
-1.41029e-07 -1.11921e-08 3.39793e-08
-5.49212e-07 -3.58105e-07 9.49672e-07
-9.8524e-07 -6.07559e-07 1.7344e-06
1.90226e-07 -9.48553e-09 1.63559e-07
-3.41875e-08 -5.28293e-08 1.92117e-07
-3.6168e-08 -1.89306e-08 7.32873e-08
-6.33947e-07 -1.10889e-06 2.52555e-06
0.000757072 -0.000254015 1.18175e-05
1.76551e-07 -7.7504e-09 3.48907e-08
0.00192549 -0.000602854 0.00069842
-5.21029e-08 -5.05184e-07 1.15193e-06
-4.47303e-07 -6.44763e-08 2.29537e-07
-6.56632e-08 -1.03657e-06 1.87616e-06
1.7537e-06 -3.05432e-06 5.46816e-06
2.90159e-07 -1.37239e-06 2.76788e-06
-2.44466e-07 -4.05149e-07 4.35322e-07
6.24934e-08 -1.53589e-08 3.86767e-08
-2.55983e-07 -1.15145e-07 9.21478e-08
-1.28337e-06 -6.67547e-07 1.72276e-06
5.26061e-07 -7.65676e-07 1.69399e-06
-3.14441e-07 -9.98885e-07 1.63806e-06
2.49703e-07 -5.35238e-08 1.48579e-07
-3.53786e-07 -7.69565e-08 1.46302e-07
-8.65775e-08 -1.19001e-07 1.03329e-07
-5.69805e-07 -2.67257e-07 8.36011e-07
9.94661e-08 -1.15895e-07 2.15995e-07
0.00126862 -0.000329849 -0.000488271
1.3401e-07 -3.04008e-07 6.07448e-07
9.04751e-08 -6.96437e-09 1.93961e-08
-7.14045e-07 -4.22014e-07 1.10392e-06
-2.20491e-07 -4.6565e-07 1.07082e-06
-1.60303e-07 -2.407e-07 5.64902e-07
-5.10239e-07 -2.2214e-07 5.75845e-07
4.02534e-07 -1.02468e-06 2.26725e-06
2.6783e-07 -4.817e-08 2.05433e-07
0.00118887 0.000367815 0.000190659
1.14284e-07 5.87671e-09 1.175e-08
0.00120838 -0.000102879 -0.000305984
0.0019423 -0.000221402 -0.000493823
0.00106752 0.000762571 -0.000569075
3.35234e-07 -3.51759e-08 1.28022e-07
-1.86275e-07 -9.41648e-09 4.58855e-08
-1.63725e-07 -3.15062e-07 8.31214e-07
-6.24055e-07 -1.50142e-07 7.18031e-07
-7.67659e-07 -3.73225e-07 7.89595e-07
-3.88222e-06 -3.03658e-06 5.67408e-06
-4.3277e-08 -6.04646e-07 8.96779e-07
-1.39214e-08 -8.81919e-07 1.35758e-06
1.54689e-07 -5.34718e-07 1.04399e-06
0.0017749 0.000777708 -7.07943e-05
5.24769e-08 -8.07692e-07 1.76332e-06
6.73556e-07 -5.35382e-07 9.38294e-07
9.5312e-07 -7.09329e-07 1.53843e-06
4.73171e-08 -3.8896e-08 5.45355e-08
5.77025e-07 -1.01323e-06 2.02321e-06
1.21748e-07 -4.39617e-08 7.1928e-08
2.1431e-07 -5.59825e-07 8.86073e-07
1.35514e-06 -8.22409e-07 1.79191e-06
-7.78144e-07 -1.04379e-06 1.72939e-06
-1.15949e-06 -1.01136e-06 1.62773e-06
-8.59268e-08 -2.74827e-09 1.83068e-08
1.14067e-06 -3.80821e-07 1.05886e-06
1.69507e-06 -5.30238e-07 1.45864e-06
1.46213e-06 -5.06307e-07 1.56994e-06
0.000735524 0.000386212 -0.000400935
1.68974e-07 -6.02873e-07 1.08807e-06
-1.17449e-07 -3.19403e-08 9.16794e-08
5.53588e-07 -4.44938e-07 9.89553e-07
8.17298e-07 -1.23411e-06 2.8011e-06
1.22367e-06 -4.30066e-07 9.27379e-07
-5.4186e-07 -4.24408e-07 6.2862e-07
-5.227e-07 -1.24289e-06 2.2612e-06
-5.35359e-07 -1.12477e-06 2.3475e-06
-1.09454e-07 -3.01252e-08 2.83763e-08
0.00146252 0.000202569 0.000375062
-6.34508e-08 -1.79181e-08 2.21061e-09
8.80328e-08 -4.25767e-07 9.59155e-07
1.26196e-06 -3.03974e-07 8.76619e-07
0.00165843 0.000474987 -0.000730927
-6.09504e-08 -1.03213e-08 2.06749e-08
7.63418e-07 -3.03292e-07 5.97907e-07
2.03552e-08 -3.38223e-07 7.00404e-07
-1.73446e-08 -5.77283e-07 1.3135e-06
-9.19768e-07 -3.58769e-07 7.02892e-07
-8.35803e-07 -4.15188e-07 1.0294e-06
0.00106433 -0.000171346 0.00041375
-2.46312e-09 -2.03625e-09 9.66948e-09
0.00147428 -0.000380714 0.000372481
5.14724e-08 -4.71027e-07 7.6688e-07
4.65429e-07 -4.287e-07 9.78109e-07
1.50272e-06 -1.04673e-06 2.46246e-06
-1.15656e-06 -8.32169e-07 2.02672e-06
-7.1886e-07 -3.81779e-07 7.24246e-07
-4.51881e-07 -3.99268e-07 6.58462e-07
-5.43472e-07 -7.0656e-07 1.28919e-06
0.00108269 0.000541612 -0.000730583
-1.2498e-06 -6.33766e-07 9.87374e-07
-8.89335e-08 -1.83251e-07 1.87448e-07
2.17548e-06 -1.84682e-06 3.99387e-06
5.32023e-07 -7.81567e-07 1.60812e-06
3.64053e-08 -7.64037e-08 1.26605e-07
3.04772e-07 -8.2701e-08 1.14896e-07
-3.12025e-09 -5.03423e-09 4.43112e-09
0.0023659 0.000758432 -3.39376e-05
-5.65291e-08 -3.28676e-07 7.33304e-07
5.94214e-07 -3.33422e-07 6.38067e-07
-3.46428e-07 -3.28366e-07 7.89339e-07
0.00151601 0.000152755 -0.000677827
0.000929431 0.000822608 0.0017685
-4.14343e-07 -2.05844e-07 5.74843e-07
-4.5203e-07 -8.40728e-07 1.70331e-06
-1.94068e-07 -1.16299e-07 1.16655e-07
-5.31213e-08 -4.38875e-08 1.01813e-07
3.89021e-07 -3.82568e-07 6.93133e-07
-2.57616e-07 -1.05656e-07 3.35011e-07
-2.2669e-07 -5.22917e-07 1.20739e-06
-3.86244e-07 -3.5805e-07 8.64211e-07
6.87764e-07 -4.30114e-07 9.28519e-07
4.06397e-07 -2.85785e-08 2.0294e-07
9.29854e-07 -3.20959e-07 8.27747e-07
5.6519e-07 -2.488e-07 5.33003e-07
5.38822e-07 -1.29326e-07 4.25119e-07
8.70761e-07 -5.8183e-07 1.42532e-06
1.47433e-07 -3.75325e-07 6.01854e-07
-3.71524e-07 -5.85889e-08 2.29298e-07
-5.10014e-07 -1.10966e-07 4.59673e-07
-2.23476e-07 -5.20182e-08 1.82695e-07
-1.10896e-07 -3.12125e-07 6.80492e-07
-2.22012e-07 -7.9353e-08 6.63719e-08
4.49544e-07 -6.5134e-07 1.41033e-06
0.00179609 -0.000133994 0.000253342
-6.67258e-07 -8.18083e-07 1.77249e-06
9.35339e-07 -6.0368e-07 1.32558e-06
5.90805e-07 -8.64392e-07 1.65812e-06
0.00138299 -0.000177154 -0.000334813
-1.2889e-07 -3.33769e-08 9.23061e-08
-6.09824e-07 -3.87971e-07 6.25748e-07
-1.11621e-06 -6.77396e-07 1.39808e-06
-6.36322e-07 -4.34728e-07 9.83455e-07
1.93289e-07 -2.91059e-07 4.95896e-07
2.9577e-07 -3.58438e-07 7.87598e-07
3.35534e-07 -2.21534e-07 3.67043e-07
7.10939e-08 -3.38621e-07 6.55788e-07
-2.62663e-07 -2.47584e-08 1.96813e-07
4.55944e-07 -8.98521e-08 3.28097e-07
-8.20091e-08 -7.13685e-08 4.58696e-08
-1.46032e-07 -9.14854e-08 6.74641e-08
5.23439e-07 -5.17834e-07 1.07912e-06
7.95667e-07 -1.59421e-07 4.92581e-07
1.46777e-07 -5.18548e-07 1.08415e-06
6.2435e-07 -2.08551e-07 6.11848e-07
7.84575e-07 -4.78822e-07 9.80934e-07
0.00149539 -0.000277133 -7.25262e-05
5.89331e-08 -1.35656e-08 1.83869e-08
0.00134216 -0.000644229 -4.15274e-06
4.6876e-07 -8.57692e-08 2.55497e-07
5.98431e-07 -1.7597e-07 3.37052e-07
6.82467e-07 -3.07712e-07 8.8546e-07
5.57394e-07 -2.72598e-07 6.60297e-07
-1.84724e-07 -3.47047e-07 4.19209e-07
-3.23744e-07 -2.79639e-07 3.41205e-07
5.95482e-08 -9.27832e-09 3.1883e-09
4.94674e-07 -4.19696e-07 8.34867e-07
-2.39361e-07 -5.22527e-07 1.1339e-06
4.10034e-07 -4.18482e-07 7.92634e-07
-6.01933e-07 -2.20308e-07 5.48369e-07
1.90527e-08 -6.17316e-08 7.26682e-08
-5.10433e-07 -5.48371e-07 1.08048e-06
2.5207e-08 -4.3696e-08 1.44928e-07
4.75484e-07 -1.79047e-07 4.88656e-07
1.1212e-06 -5.177e-07 1.33846e-06
1.56867e-08 -1.91175e-07 3.72108e-07
-9.12476e-08 -6.61641e-07 1.40771e-06
3.9914e-07 -1.68523e-07 3.05808e-07
-3.5167e-07 -5.23267e-07 7.83923e-07
1.60784e-07 -6.15481e-08 7.45039e-08
0.00166205 0.000304868 0.000707796
-3.17517e-07 -9.69363e-08 3.43945e-07
-3.93528e-07 -2.3641e-07 3.16072e-07
2.44406e-07 -1.35329e-07 3.38125e-07
1.92459e-07 -1.31795e-07 1.82408e-07
-1.85112e-07 -1.73602e-07 1.46587e-07
-1.34846e-07 -1.24302e-07 3.68147e-07
0.00199431 -0.00141607 7.80878e-05
0.00194364 0.000725776 -0.00115573
4.81489e-07 -8.03511e-08 3.75558e-07
5.55192e-07 -2.93324e-07 7.55136e-07
-1.18681e-08 -1.66463e-07 2.22496e-07
1.26553e-07 -4.91012e-07 1.08288e-06
1.4981e-07 -1.17921e-07 3.32402e-07
-5.60973e-07 -1.93553e-07 6.12908e-07
6.58167e-07 -5.6526e-07 1.24995e-06
0.000787727 0.000739273 -2.00104e-05
8.8508e-07 -3.79113e-07 9.5583e-07
4.88823e-08 -5.07469e-08 6.57051e-08
0.000874946 1.1315e-05 -0.000982379
-1.0394e-07 -8.33962e-08 1.87212e-07
0.00201153 -0.0011775 0.000155313
7.73126e-07 -5.12627e-07 1.19211e-06
5.29609e-07 -3.07872e-07 7.30141e-07
0.000803595 -0.00105872 9.50216e-05
3.82077e-07 -1.65282e-07 3.87601e-07
0.000730676 0.00118737 -8.01574e-05
-8.65684e-09 -2.0563e-07 3.46071e-07
6.03881e-08 -1.80994e-07 3.68367e-07
5.3624e-07 -7.17378e-08 3.25697e-07
-6.37589e-08 -6.09437e-07 1.21313e-06
8.25979e-08 -9.36989e-08 1.38921e-07
0.000686249 -0.0001583 0.000803008
-1.31109e-07 -1.75081e-07 3.42719e-07
-1.96746e-07 -7.15007e-08 1.27766e-07
-1.44951e-07 -2.04006e-07 3.49037e-07
0.000444522 -0.000409105 0.00102854
7.33658e-07 -3.65363e-07 7.9019e-07
7.42611e-07 -4.511e-07 1.01191e-06
-7.97566e-08 -2.09909e-07 3.57702e-07
2.41956e-07 -1.6753e-07 3.83073e-07
4.42005e-08 -1.45328e-08 1.12031e-08
0.00100647 0.000493401 8.26447e-05
0.000696264 -0.00100094 0.000151224
0.000749523 -0.000978895 6.78039e-05
7.9743e-07 -3.33409e-07 8.12106e-07
1.77828e-07 -1.53551e-07 3.14722e-07
2.76087e-07 -1.17402e-07 1.58093e-07
-1.61095e-07 -1.80876e-07 4.30133e-07
0.00074242 0.000503915 0.000115415
0.00040525 0.000359254 -0.000525508
-5.41186e-08 -1.58193e-08 9.45873e-09
-8.31432e-08 -1.07929e-08 1.54467e-08
-1.08796e-07 -3.93702e-07 8.4265e-07
-5.9796e-08 -1.23347e-08 2.30302e-08
0.000633272 -0.000237184 -0.000284307
-1.40653e-07 -4.48909e-07 1.01224e-06
2.69445e-07 -8.43947e-08 1.94605e-07
3.5231e-07 -6.57403e-07 1.16642e-06
-1.43605e-08 -5.7738e-09 2.16984e-08
-2.99797e-07 -3.75631e-07 8.54337e-07
-1.86863e-07 -1.76453e-07 3.99051e-07
0.000394518 -0.000402758 0.000771282