# vtk DataFile Version 4.2
vtk output
ASCII
DATASET UNSTRUCTURED_GRID

POINTS 343 double
0.00156892 0.00421428 -1.86886e-05
0.00303466 0.00502036 0.00213894
0 0.00419538 0.00112517
0.00270217 0.00198786 0.00190983
0.00724669 0.00250244 0.00494677
0.00724378 0.00392435 0.00631296
0.0106672 0.00491929 0.00487214
0.00871328 0.00496623 0.00358719
0.0095758 0.00341685 0.00680231
0.00698598 0.00508345 0.00491716
0.00586038 0.00119506 0.00993003
0.0074028 0.00217801 0.00781759
0.00587989 6.98968e-05 0.00824905
0.00281596 0.00203665 0.0080001
0.00600364 0.00261028 0.00992793
0.00972704 0.00657681 0.00683325
0.00897083 0.00630192 0.00507691
0.00316491 0.00222375 0.00510872
0 0.00143586 0.00417514
0.00223007 0.0034933 0.00401058
0.00957743 0.00332263 0.00304627
0.0108531 0.00236155 0.00493488
0 0.00270918 0.00154168
0.00583148 0.00150628 -6.91243e-05
0.00702131 0.00228121 0.00211285
0.00554962 0.00359884 0.0015363
0.00188524 2.18502e-05 0.00403793
0.00587247 7.00449e-05 0.00161722
0.00366871 0.00699794 -4.33419e-05
0.0027038 0.00808605 0.00191211
0.00571647 0.00632145 0.00157598
0.0111805 0.00813692 0.00786627
0.0111449 0.00496699 0.00789189
0.0117244 0.00623991 0.00580816
0.0139423 0.00901374 0.0040263
0.0105875 0.00777894 0.00483744
0.0119539 0.0101473 0.00402344
0.0111435 0.00812348 0.00188028
0.00495182 0.00309922 0.00690173
0.00621306 0.00374136 0.00825058
0.00545822 0.00167162 0.00590529
0.00699341 0.00775872 0.00759457
0.00277634 0.00804191 0.00795699
0.00394238 0.0100466 0.00708039
0.00546956 0.00846922 0.00589295
0 0.00695361 0.00262895
0.00229956 0.00626767 0.00406039
0 0.0040177 0.00850214
0.00323515 0.00502534 0.00762344
0.0020023 0.00419843 0.00997648
0.0100264 0.00725174 0.00988103
0.00855605 0.00608324 0.00831712
0.0028639 0.00797659 0.00470757
0.00425324 0.00699629 0.00641766
0.00221664 0.00610557 0.00589965
0.0139462 0.00597514 0.00814647
0 0.00718191 0.00711644
0.0022126 0.00580122 -2.63877e-05
0 0.00577432 0.00158701
0.0139446 0.00734845 0.00694711
0.00401153 0.00339894 0.00995168
0.0139447 0.00160638 0.00400863
0.0112616 0.00209764 0.00184284
0.0117413 0.00366278 0.00385738
0.00522541 0.00171615 0.00406636
0.00210301 0.0100251 0.00578985
0.00394283 4.70094e-05 0.00708181
0.00855352 0.00428408 0.00827539
0.0139413 0.00744362 0.00402923
0.0119575 0.000139434 0.00402462
0.00468058 0.00293038 -5.52771e-05
0.00378163 0.00158641 0.00995465
0.00395653 4.7155e-05 0.00278517
0.00671333 0.0052804 0.00747532
0.00442302 0.00320234 0.00311447
0 0.00849157 0.00581511
0.00681472 0.00375862 0.00370462
0.00215046 0.00273517 -2.55278e-05
0.00809883 0.00842178 0.00990376
0.00835054 0.0101004 0.00840745
0.0058789 0.0100699 0.00824803
0.0056086 0.00856981 0.00993262
0.0139426 0.00865545 0.0056458
0.00439916 0.00688928 0.00309752
0 0.00748929 0.00137438
0.00191533 0.00751235 -2.28119e-05
0 0.00287343 0.00335182
0 0.00580816 0.00831736
0 0.00429792 0.00253898
0.00354379 0.00434105 -4.18418e-05
0.00200175 0.0058431 0.00997645
0.00723678 0.00656267 0.00631486
0.00503633 0.00657225 0.00817434
0.00971127 0.0027431 0.0098844
0.01121 0.00209217 0.00790325
0.00974026 0.000114926 0.00296445
0.00841441 0.00176532 0.00351185
0.0139428 0.0030422 0.00318464
0 0.00140616 0.00256446
0.00890374 0.00833475 0.00631581
0.00812981 0.00153353 -9.75619e-05
0.00843565 0.00365377 0.00150098
0.00440386 0.0100522 0.00577211
0.0119471 0.0101473 0.00568925
0.00358006 0.00144942 -4.22445e-05
0.00835124 9.8897e-05 0.00139286
0.0087737 0.0083936 0.00351106
0.0119514 0.000139453 0.00569076
0.00867501 0.00177679 0.00626348
0.00196067 0.00258717 0.00997689
0.00993932 0.00730221 -0.000121362
0.00721841 0.00777708 0.00208069
0.0083038 0.00619381 0.0015008
0 0.00686719 0.00578184
0.0139452 0.00157709 0.00239863
0.0024782 0.00363998 0.00637851
0.013942 0.00865058 0.00245598
0.0117453 0.0063305 0.00399167
0.00834924 0.0101015 0.00139103
0.00973995 0.000114548 0.00681307
0.0139456 0.00160585 0.00565163
0.0117271 0.00371367 0.00592097
0.00210382 2.44696e-05 0.00579058
0 0.0013659 0.00748679
0.00190955 2.22648e-05 0.00750678
0.013943 0.00703507 0.00561152
0.00812242 0.00859001 -9.96373e-05
0 0.0075208 0.00859127
0.00190448 0.00750901 0.00997765
0.00591043 0.0082764 0.00355663
0.0119952 0.0101463 0.00736888
0.013946 0.00879372 0.007356
0.00806784 0.00168336 0.00990417
0.0101416 0.00430906 0.00987907
0 0.0057735 0.00666667
0.00190931 0.0100228 0.00750595
0 0.00863025 0.00752641
0.0119948 0.000141369 0.00236222
0.013941 0.00712312 0.00246188
0.0118112 0.00648447 0.00201982
0.0118859 0.00596626 0.00985965
0.0104642 0.00149951 0.00987609
0.011999 0.000141311 0.00737068
0.0139485 0.00153614 0.00731787
0 0.00143551 0.00581971
0.00835258 9.8714e-05 0.0084083
0.00588749 6.98539e-05 0.00332952
0.011083 0.00484166 0.00190032
0.0139416 0.00446603 0.00237259
0.00590312 0.0100705 0.00659633
0.00395471 0.0100466 0.00278374
0.00183152 2.14024e-05 0.00239668
0 0.00727418 0.00419576
0.0139439 0.00594051 0.00649693
0.00973694 0.0101188 0.00296271
0.0104855 0.00876204 0.00987537
0 0.00574334 0.00336387
0 0.0043297 0.00416652
0.00959613 0.00589841 0.00988609
0.013945 0.00319032 0.00674766
0.00590412 7.01034e-05 0.00659804
0.00345682 0.0100408 0.00857029
0.0104575 0.00149208 -0.000126117
0.00806571 0.00676271 0.00990395
0.0139477 0.00768641 0.00841942
0.0120233 0.00769714 0.00985758
0.00965959 0.00313868 -0.00011632
0.00469665 0.00580041 -5.57248e-05
0.0105115 0.00875831 -0.000128107
0.0104936 0.0101285 0.00125884
0.00807659 0.00696458 -9.84628e-05
0.00974347 0.00648894 0.00291516
0.0104976 0.000124963 0.00125984
0.00402652 0.00504619 0.00995163
0.00604839 0.00590473 0.00992754
0.00604792 0.00423784 0.00992745
0.0104979 0.0101265 0.00849197
0.00345692 4.09501e-05 0.00857134
0.0139415 0.00591071 0.00319679
0 0.00302218 0.00691532
0.0139472 0.00418585 0.00833037
0.011872 0.00416139 -0.000143731
0.0139441 0.00287831 0.00137808
0 0.00244495 0.00857025
0.00341224 0.00861042 0.00995913
0.0105005 0.000124681 0.00849319
0.0118573 0.0027651 0.00985973
0.0123612 0.00434197 0.00985318
0.00792057 0.0100955 0.00573921
0.00724629 0.00767042 0.00494601
0.00788141 0.010095 0.00411969
0.00973708 0.0101183 0.00681183
0.00421943 0.00696512 0.00994942
0.00581953 0.0044006 -6.94163e-05
0.00396043 4.70851e-05 0.00435819
0.00440451 5.2504e-05 0.00577424
0.0139433 0.00436406 0.000961692
0.00508014 0.00839855 0.00152641
0.0139422 0.00449751 0.00399949
0.00931216 0.00588559 -0.000113476
0.0119908 0.0101475 0.00236121
0 0.00848692 0.00262374
0.00188408 0.0100227 0.00403716
0 0.00885053 0.00419359
0.00585601 0.00892099 -7.10604e-05
0.00587124 0.0100703 0.00161593
0.00698541 0.004876 0.00229457
0.0100839 0.00464356 -0.000122054
0.00788248 9.3258e-05 0.00412161
0.00792225 9.38055e-05 0.00574088
0.00182995 0.0100219 0.00239583
0.0119677 0.00258986 -0.000145151
0.0139442 0.00468972 0.00705073
0.00993535 0.0101215 0.00488055
0.00802441 0.00345953 0.00990402
0.00343242 4.09157e-05 0.00131572
0.0139494 0.00261435 0.00839833
0.00334416 0.00483123 0.00496011
0.00814836 0.00442858 -9.82214e-05
0.0116148 0.00594832 -0.000140408
0.00765323 0.0100919 0.00712943
0.0139427 0.00449781 0.0056652
0.00754603 0.010091 0.00268355
0.00993896 0.000116664 0.00488166
0.00395891 0.0100467 0.00435619
0 0.00452174 0.00721958
0.00631493 0.0072949 0.00992446
0.0076549 9.06844e-05 0.0071308
0.00503424 0.00513465 0.00353607
0.00593805 0.010071 0.00493654
0.005939 7.04609e-05 0.00493904
0.00512846 0.00527812 0.00611399
0 0.005744 0.00499998
0 0.00433013 0.00583333
0.00698421 0.00582855 -8.43073e-05
0.00696547 0.00642316 0.0034697
0.00754702 8.94263e-05 0.0026852
0.0139422 0.0059098 0.0048318
0.005156 0.00647001 0.00478239
0.00802493 0.00509507 0.00990406
0.0139425 0.00594116 0.00142253
0 0.00666667 0
0.0119949 0.00766568 -0.000145391
0.00465483 5.58565e-05 -5.47278e-05
0 0.01 0.00666667
0.00698373 0.0100833 0.00991642
0 0.00288419 0.00499914
0.0139422 0.0076573 0.00120943
0.0139442 0.00683335 -0.000164575
0 0.005 0.01
0.00698313 0.0029686 -8.35031e-05
0 0.005 0
0.0139496 0.000169908 0.00316714
0.0139489 0.0101634 0.00649643
0.00585959 0.00734475 -7.07498e-05
0.0139436 0.00305256 0.00483161
0.00698426 8.34122e-05 -8.32475e-05
0 0 0.00666667
0.00530787 0.00368032 0.00516349
0.00698515 8.2568e-05 0.00991711
0.0139517 0.000169651 0.00649858
0 0 0.005
0.0122575 0.01015 0.00107189
0.0139443 0.00894433 0.00105561
0.0139501 0.000169481 0.00483249
0.0139448 0.00516833 -0.00016381
0.00170171 0.0012405 -2.0126e-05
0 0.00122008 0.00122008
0 0.00333333 0.01
0 0.00666667 0.01
0.0122567 0.00892817 -0.000148685
0.0139465 0.010163 0.00316545
0.00588638 0.0100703 0.00332772
0.0139533 0.00683278 0.00982675
0 0.00333333 0
0 0.00122008 0.00877992
0.00170098 1.98471e-05 0.00876041
0.00170085 0.00124001 0.00997994
0.0122619 0.010148 0.00863297
0.00170104 0.00879991 0.00997992
0 0.00877992 0.00877992
0.0139499 0.00894269 0.00860825
0.00931062 0.0101135 -0.000114395
0.0139475 0.0013917 0.00105598
0.00170102 0.0100202 0.00875971
0.012264 0.00892584 0.00985381
0.013954 0.00516718 0.0098272
0 0 0.00333333
0.00931273 0.000110759 -0.00011197
0.012261 0.000146281 0.00107211
0.00168998 1.98796e-05 0.00119165
0 0.00877992 0.00122008
0.00169979 0.0088004 -2.03627e-05
0.00168824 0.0100201 0.00119097
0.0139527 0.0013909 0.00860893
0.0122665 0.00136796 0.00985442
0.00931489 0.000110037 0.00988972
0.0122607 0.0013688 -0.000148252
0.0122655 0.000145768 0.00863452
0.0139464 0.00350306 -0.000163579
0.0046541 0.010055 0.00994364
0.00343036 0.0100405 0.00131469
0.00931285 0.010112 0.009889
0.0139543 0.00350062 0.00982679
0 0.01 0.005
0.00366096 0.0085308 -4.35692e-05
0.0139471 0.0101633 0.00483162
0 0.01 0.00333333
0 0.00166667 0
0.0139505 0.000170032 0.00150194
0 0.00166667 0.01
0 0.00833333 0
0.0139454 0.00849971 -0.000165863
0.0139549 0.000169859 0.00816406
0.0139475 0.0101648 0.00150167
0.013952 0.0101633 0.00816239
0.00232472 0.0100273 0.00997209
0 0.01 0.00833333
0.0116366 0.0101424 -0.000141607
0.0116399 0.000139414 -0.000140709
0.011645 0.000138773 0.00986223
0.0116421 0.0101398 0.00986143
0 0 0.00833333
0.0139543 0.0084959 0.00982765
0.00232562 2.78607e-05 -2.73261e-05
0 0 0.00166667
0.00465287 0.0100555 -5.60184e-05
0.0139566 0.00183795 0.00982798
0.0139493 0.00183915 -0.000164206
0.00232441 2.73664e-05 0.00997275
0.0023233 0.0100275 -2.79576e-05
0 0.01 0.00166667
0.0139571 0.0101648 0.00982862
0 0 0.01
0.0139493 0.0101656 -0.000166608
0.0139604 0.000169141 0.00983028
0 0.01 0.01
0.0139535 0.000169568 -0.000165279
0 0.01 0
0 0 0
0.00698253 0.0100843 -8.55961e-05
0.00465467 5.53053e-05 0.00994452
0 0.00833333 0.01

CELLS 343 686
1 0
1 1
1 2
1 3
1 4
1 5
1 6
1 7
1 8
1 9
1 10
1 11
1 12
1 13
1 14
1 15
1 16
1 17
1 18
1 19
1 20
1 21
1 22
1 23
1 24
1 25
1 26
1 27
1 28
1 29
1 30
1 31
1 32
1 33
1 34
1 35
1 36
1 37
1 38
1 39
1 40
1 41
1 42
1 43
1 44
1 45
1 46
1 47
1 48
1 49
1 50
1 51
1 52
1 53
1 54
1 55
1 56
1 57
1 58
1 59
1 60
1 61
1 62
1 63
1 64
1 65
1 66
1 67
1 68
1 69
1 70
1 71
1 72
1 73
1 74
1 75
1 76
1 77
1 78
1 79
1 80
1 81
1 82
1 83
1 84
1 85
1 86
1 87
1 88
1 89
1 90
1 91
1 92
1 93
1 94
1 95
1 96
1 97
1 98
1 99
1 100
1 101
1 102
1 103
1 104
1 105
1 106
1 107
1 108
1 109
1 110
1 111
1 112
1 113
1 114
1 115
1 116
1 117
1 118
1 119
1 120
1 121
1 122
1 123
1 124
1 125
1 126
1 127
1 128
1 129
1 130
1 131
1 132
1 133
1 134
1 135
1 136
1 137
1 138
1 139
1 140
1 141
1 142
1 143
1 144
1 145
1 146
1 147
1 148
1 149
1 150
1 151
1 152
1 153
1 154
1 155
1 156
1 157
1 158
1 159
1 160
1 161
1 162
1 163
1 164
1 165
1 166
1 167
1 168
1 169
1 170
1 171
1 172
1 173
1 174
1 175
1 176
1 177
1 178
1 179
1 180
1 181
1 182
1 183
1 184
1 185
1 186
1 187
1 188
1 189
1 190
1 191
1 192
1 193
1 194
1 195
1 196
1 197
1 198
1 199
1 200
1 201
1 202
1 203
1 204
1 205
1 206
1 207
1 208
1 209
1 210
1 211
1 212
1 213
1 214
1 215
1 216
1 217
1 218
1 219
1 220
1 221
1 222
1 223
1 224
1 225
1 226
1 227
1 228
1 229
1 230
1 231
1 232
1 233
1 234
1 235
1 236
1 237
1 238
1 239
1 240
1 241
1 242
1 243
1 244
1 245
1 246
1 247
1 248
1 249
1 250
1 251
1 252
1 253
1 254
1 255
1 256
1 257
1 258
1 259
1 260
1 261
1 262
1 263
1 264
1 265
1 266
1 267
1 268
1 269
1 270
1 271
1 272
1 273
1 274
1 275
1 276
1 277
1 278
1 279
1 280
1 281
1 282
1 283
1 284
1 285
1 286
1 287
1 288
1 289
1 290
1 291
1 292
1 293
1 294
1 295
1 296
1 297
1 298
1 299
1 300
1 301
1 302
1 303
1 304
1 305
1 306
1 307
1 308
1 309
1 310
1 311
1 312
1 313
1 314
1 315
1 316
1 317
1 318
1 319
1 320
1 321
1 322
1 323
1 324
1 325
1 326
1 327
1 328
1 329
1 330
1 331
1 332
1 333
1 334
1 335
1 336
1 337
1 338
1 339
1 340
1 341
1 342

CELL_TYPES 343
1
1
1
1
1
1
1
1
1
1
1
1
1
1
1
1
1
1
1
1
1
1
1
1
1
1
1
1
1
1
1
1
1
1
1
1
1
1
1
1
1
1
1
1
1
1
1
1
1
1
1
1
1
1
1
1
1
1
1
1
1
1
1
1
1
1
1
1
1
1
1
1
1
1
1
1
1
1
1
1
1
1
1
1
1
1
1
1
1
1
1
1
1
1
1
1
1
1
1
1
1
1
1
1
1
1
1
1
1
1
1
1
1
1
1
1
1
1
1
1
1
1
1
1
1
1
1
1
1
1
1
1
1
1
1
1
1
1
1
1
1
1
1
1
1
1
1
1
1
1
1
1
1
1
1
1
1
1
1
1
1
1
1
1
1
1
1
1
1
1
1
1
1
1
1
1
1
1
1
1
1
1
1
1
1
1
1
1
1
1
1
1
1
1
1
1
1
1
1
1
1
1
1
1
1
1
1
1
1
1
1
1
1
1
1
1
1
1
1
1
1
1
1
1
1
1
1
1
1
1
1
1
1
1
1
1
1
1
1
1
1
1
1
1
1
1
1
1
1
1
1
1
1
1
1
1
1
1
1
1
1
1
1
1
1
1
1
1
1
1
1
1
1
1
1
1
1
1
1
1
1
1
1
1
1
1
1
1
1
1
1
1
1
1
1
1
1
1
1
1
1
1
1
1
1
1
1
1
1
1
1
1
1
1
1
1
1
1
1
1
1
1
1
1
1
1
1
1
1
1
1
1
1
1
1
1
1
1
1
1
1
1
1

POINT_DATA 343
FIELD FieldData 8

NodeID_(#) 1 343 int
0
1
2
3
4
5
6
7
8
9
10
11
12
13
14
15
16
17
18
19
20
21
22
23
24
25
26
27
28
29
30
31
32
33
34
35
36
37
38
39
40
41
42
43
44
45
46
47
48
49
50
51
52
53
54
55
56
57
58
59
60
61
62
63
64
65
66
67
68
69
70
71
72
73
74
75
76
77
78
79
80
81
82
83
84
85
86
87
88
89
90
91
92
93
94
95
96
97
98
99
100
101
102
103
104
105
106
107
108
109
110
111
112
113
114
115
116
117
118
119
120
121
122
123
124
125
126
127
128
129
130
131
132
133
134
135
136
137
138
139
140
141
142
143
144
145
146
147
148
149
150
151
152
153
154
155
156
157
158
159
160
161
162
163
164
165
166
167
168
169
170
171
172
173
174
175
176
177
178
179
180
181
182
183
184
185
186
187
188
189
190
191
192
193
194
195
196
197
198
199
200
201
202
203
204
205
206
207
208
209
210
211
212
213
214
215
216
217
218
219
220
221
222
223
224
225
226
227
228
229
230
231
232
233
234
235
236
237
238
239
240
241
242
243
244
245
246
247
248
249
250
251
252
253
254
255
256
257
258
259
260
261
262
263
264
265
266
267
268
269
270
271
272
273
274
275
276
277
278
279
280
281
282
283
284
285
286
287
288
289
290
291
292
293
294
295
296
297
298
299
300
301
302
303
304
305
306
307
308
309
310
311
312
313
314
315
316
317
318
319
320
321
322
323
324
325
326
327
328
329
330
331
332
333
334
335
336
337
338
339
340
341
342

Component_(#) 1 343 int
0
0
0
0
0
0
0
0
0
0
0
0
0
0
0
0
0
0
0
0
0
0
0
0
0
0
0
0
0
0
0
0
0
0
0
0
0
0
0
0
0
0
0
0
0
0
0
0
0
0
0
0
0
0
0
0
0
0
0
0
0
0
0
0
0
0
0
0
0
0
0
0
0
0
0
0
0
0
0
0
0
0
0
0
0
0
0
0
0
0
0
0
0
0
0
0
0
0
0
0
0
0
0
0
0
0
0
0
0
0
0
0
0
0
0
0
0
0
0
0
0
0
0
0
0
0
0
0
0
0
0
0
0
0
0
0
0
0
0
0
0
0
0
0
0
0
0
0
0
0
0
0
0
0
0
0
0
0
0
0
0
0
0
0
0
0
0
0
0
0
0
0
0
0
0
0
0
0
0
0
0
0
0
0
0
0
0
0
0
0
0
0
0
0
0
0
0
0
0
0
0
0
0
0
0
0
0
0
0
0
0
0
0
0
0
0
0
0
0
0
0
0
0
0
0
0
0
0
0
0
0
0
0
0
0
0
0
0
0
0
0
0
0
0
0
0
0
0
0
0
0
0
0
0
0
0
0
0
0
0
0
0
0
0
0
0
0
0
0
0
0
0
0
0
0
0
0
0
0
0
0
0
0
0
0
0
0
0
0
0
0
0
0
0
0
0
0
0
0
0
0
0
0
0
0
0
0
0
0
0
0
0
0
0
0
0
0
0
0
0
0
0
0
0
0
0
0
0
0
0
0
0
0
0
0
0
0
0
0
0
0
0
0

NodalMass_(kg) 1 343 double
3.15563e-06
1.41304e-05
2.20912e-06
1.71484e-05
8.42e-06
9.09306e-06
1.01179e-05
7.52198e-06
6.81096e-06
5.58223e-06
3.10888e-06
1.07575e-05
4.87011e-06
1.64955e-05
3.0246e-06
8.05984e-06
6.703e-06
1.0877e-05
4.18978e-06
8.16106e-06
6.14143e-06
1.17902e-05
2.23114e-06
4.25176e-06
1.09915e-05
7.41467e-06
4.21871e-06
3.92484e-06
3.08766e-06
1.31268e-05
7.72627e-06
1.65404e-05
1.19037e-05
7.97564e-06
3.81683e-06
1.11001e-05
3.81317e-06
1.39137e-05
6.37414e-06
8.00975e-06
7.6712e-06
1.21135e-05
1.6399e-05
2.78633e-06
8.93599e-06
2.58087e-06
7.57362e-06
4.23241e-06
1.31286e-05
3.80168e-06
2.7746e-06
7.16776e-06
1.21307e-05
5.11765e-06
8.19728e-06
4.58094e-06
2.79503e-06
3.26126e-06
4.12443e-06
2.11915e-06
3.35177e-06
3.61669e-06
1.56838e-05
7.33679e-06
8.24695e-06
5.00369e-06
2.82625e-06
7.20276e-06
3.26815e-06
4.18751e-06
2.02785e-06
2.42152e-06
3.11835e-06
5.97459e-06
5.87101e-06
4.09374e-06
5.45463e-06
2.28825e-06
4.49759e-06
4.38192e-06
4.50892e-06
4.39234e-06
4.27273e-06
5.32031e-06
1.53201e-06
2.38869e-06
2.02885e-06
4.38798e-06
3.17972e-06
3.14298e-06
4.61567e-06
5.87645e-06
8.18088e-06
2.48341e-06
1.53815e-05
3.49683e-06
7.35227e-06
2.01314e-06
2.0408e-06
7.98183e-06
4.41293e-06
7.1389e-06
1.20123e-06
5.03343e-06
1.61257e-06
4.12601e-06
8.73748e-06
4.37849e-06
7.97173e-06
2.13557e-06
3.38137e-06
9.48623e-06
7.40262e-06
1.80226e-06
2.10222e-06
7.98889e-06
1.87983e-06
7.44814e-06
4.19782e-06
2.37156e-06
4.31705e-06
6.06441e-06
4.30905e-06
2.16843e-06
1.8986e-06
1.81294e-06
3.89762e-06
2.44299e-06
1.65628e-06
8.01374e-06
1.64513e-06
2.3931e-06
3.01363e-06
2.99431e-06
1.36541e-06
1.87293e-06
2.09622e-06
1.94762e-06
1.87618e-06
6.37913e-06
4.58628e-06
2.02767e-06
1.61999e-06
2.41284e-06
3.8865e-06
4.44973e-06
2.29839e-06
1.17349e-05
3.11811e-06
1.354e-06
3.45063e-06
1.81846e-06
2.9382e-06
1.37381e-06
2.41464e-06
2.10451e-06
2.63927e-06
2.14166e-06
1.7943e-06
3.19976e-06
1.36989e-06
2.43489e-06
2.08158e-06
1.3601e-06
2.17203e-06
1.89924e-06
3.16996e-06
2.6119e-06
2.37677e-06
1.60225e-06
1.90684e-06
5.49206e-06
1.87878e-06
3.14313e-06
2.97301e-06
1.18454e-06
1.89263e-06
2.04166e-06
2.73572e-06
2.42405e-06
3.23083e-06
3.19752e-06
3.2142e-06
1.94492e-06
1.61196e-06
1.86876e-06
3.22435e-06
2.1114e-06
2.96917e-06
6.15288e-06
2.3097e-06
2.39729e-06
2.38029e-06
2.64508e-06
1.66557e-06
1.82377e-06
2.06583e-06
5.73271e-06
2.08467e-06
2.18324e-06
2.43522e-06
3.1188e-06
3.17316e-06
2.05447e-06
1.9592e-06
3.05718e-06
6.44327e-06
2.08796e-06
2.72615e-06
2.15709e-06
1.86812e-06
2.0028e-06
2.10999e-06
2.88994e-06
2.3222e-06
2.3979e-06
1.97629e-06
6.4127e-06
2.16225e-06
3.29198e-06
2.10223e-06
2.66566e-06
1.94415e-06
2.91865e-06
2.58116e-06
2.11703e-06
2.09534e-06
1.91719e-06
7.06046e-06
2.25203e-06
2.06378e-06
6.28159e-06
2.12147e-06
2.90924e-06
2.12921e-06
6.4487e-06
1.41701e-06
2.0682e-06
6.58062e-06
2.52584e-06
2.39732e-06
7.42191e-07
2.22368e-06
7.06751e-07
7.00657e-07
8.93749e-07
2.53536e-06
2.26535e-06
1.33607e-06
7.84725e-07
2.32303e-06
6.06694e-07
6.68276e-07
6.84307e-07
2.51242e-06
2.31629e-06
7.8367e-07
6.80839e-07
6.22692e-06
6.7471e-07
6.65305e-07
7.01158e-07
1.8232e-06
1.90695e-06
6.86722e-07
7.04792e-07
1.86445e-06
2.28572e-06
6.8045e-07
7.16005e-07
1.82373e-06
6.01079e-07
2.02791e-06
7.4579e-07
5.74423e-07
1.80052e-06
1.454e-06
2.2702e-06
1.80636e-06
2.15356e-06
1.79089e-06
1.79456e-06
6.8231e-07
2.24737e-06
1.45239e-06
1.79556e-06
6.97875e-07
6.24265e-07
6.62717e-07
1.44627e-06
1.40138e-06
2.15258e-06
1.82851e-06
1.3994e-06
1.43932e-06
2.19226e-06
6.97732e-07
1.77726e-06
1.79162e-06
6.54258e-07
7.3397e-07
2.34895e-06
7.10392e-07
6.56982e-07
6.26314e-07
2.18926e-06
6.12493e-07
6.03901e-07
5.92831e-07
5.12031e-07
5.11667e-07
4.9467e-07
4.97016e-07
4.96269e-07
5.33079e-07
4.94191e-07
4.97855e-07
4.86862e-07
4.90626e-07
4.94649e-07
4.94954e-07
4.91922e-07
4.89615e-07
4.96354e-07
4.95189e-07
4.82188e-07
1.10854e-06
5.3299e-07
5.44763e-07
5.36655e-07
5.15417e-07
5.01772e-07
5.53774e-07
5.53774e-07
5.53774e-07
5.53774e-07
5.53774e-07
5.53774e-07
5.50785e-07
5.50785e-07
7.45291e-07
7.11668e-07
4.9897e-07

NodalForce_(N) 3 343 double
-4.22085e-06 -3.04822e-07 2.75187e-07
-3.77335e-05 -3.06605e-06 3.41039e-06
7.38747e-05 -0.000106234 0.000500949
-4.30445e-05 -3.16955e-06 3.57713e-06
-6.12653e-05 -6.38473e-06 9.93019e-06
-6.80943e-05 -6.83627e-06 1.13958e-05
-0.000103162 -1.39808e-05 2.49106e-05
-5.95456e-05 -7.69413e-06 1.25651e-05
-6.83347e-05 -7.96258e-06 1.44148e-05
-3.74242e-05 -4.017e-06 6.12254e-06
-2.2022e-05 -1.82559e-06 3.36237e-06
-8.89482e-05 -8.67747e-06 1.54744e-05
-3.33075e-05 -2.80821e-06 4.97553e-06
-5.08812e-05 -2.94496e-06 3.9596e-06
-2.15274e-05 -1.77661e-06 3.41664e-06
-7.84362e-05 -9.72637e-06 1.73713e-05
-5.66268e-05 -7.22934e-06 1.19198e-05
-3.47784e-05 -2.32358e-06 3.19683e-06
0.00141904 0.000427415 0.000403965
-1.74839e-05 -1.02362e-06 1.25726e-06
-5.38668e-05 -7.30006e-06 1.23455e-05
-0.000127224 -1.67283e-05 3.02904e-05
0.00224169 0.000139163 0.000733176
-2.07337e-05 -2.5476e-06 4.00059e-06
-6.97559e-05 -8.45715e-06 1.39255e-05
-3.53843e-05 -4.02342e-06 6.51643e-06
-8.1206e-06 -3.49817e-07 6.29949e-07
-2.13292e-05 -2.08213e-06 3.78534e-06
-8.33409e-06 -8.82973e-07 1.24762e-06
-2.94973e-05 -2.08022e-06 2.69893e-06
-3.60058e-05 -4.03213e-06 6.88159e-06
-0.000186051 -2.54112e-05 4.63459e-05
-0.00013991 -1.74424e-05 3.33782e-05
-9.02435e-05 -1.28968e-05 2.34016e-05
-4.68152e-05 -8.16984e-06 1.43423e-05
-0.000106846 -1.59361e-05 2.65361e-05
-3.88743e-05 -6.62817e-06 1.11358e-05
-0.000125332 -2.20167e-05 3.6364e-05
-3.32753e-05 -2.69285e-06 4.12442e-06
-5.49638e-05 -4.67627e-06 8.93634e-06
-4.40796e-05 -3.83307e-06 5.38176e-06
-8.53911e-05 -9.05305e-06 1.55003e-05
-4.60358e-05 -3.01613e-06 3.68547e-06
-1.02295e-05 -8.34809e-07 1.10658e-06
-4.52258e-05 -4.64811e-06 6.22443e-06
0.000779958 -0.000502124 -0.000249774
-1.60517e-05 -1.17929e-06 1.26547e-06
0.000873416 0.000302459 -0.000419966
-4.39039e-05 -2.66761e-06 3.95189e-06
-8.42937e-06 -4.30175e-07 5.29425e-07
-3.01796e-05 -3.54733e-06 6.83063e-06
-6.51053e-05 -7.01787e-06 1.33854e-05
-3.18714e-05 -1.96903e-06 2.66472e-06
-2.1137e-05 -1.5523e-06 2.30136e-06
-1.78837e-05 -1.07354e-06 1.3831e-06
-6.56716e-05 -9.43171e-06 1.82133e-05
0.000714758 -0.000330582 -0.000125577
-5.80595e-06 -5.15594e-07 5.0732e-07
0.00222914 -0.000682485 0.00101124
-2.89415e-05 -4.41265e-06 8.30775e-06
-1.59965e-05 -1.04315e-06 1.91532e-06
-4.88604e-05 -7.2674e-06 1.39411e-05
-0.000158279 -2.36387e-05 4.23394e-05
-8.09246e-05 -1.1739e-05 2.12996e-05
-4.29442e-05 -3.92101e-06 5.2952e-06
-9.62663e-06 -5.07048e-07 6.92625e-07
-1.2381e-05 -8.58138e-07 1.21796e-06
-6.72326e-05 -6.98916e-06 1.34901e-05
-4.09475e-05 -6.91226e-06 1.23422e-05
-4.96853e-05 -6.47196e-06 1.26849e-05
-7.61036e-06 -8.27495e-07 1.30712e-06
-1.12283e-05 -7.44491e-07 1.28096e-06
-1.22915e-05 -9.16568e-07 1.33007e-06
-4.21947e-05 -3.82972e-06 7.14484e-06
-2.44575e-05 -2.14298e-06 2.84821e-06
0.00116578 -0.000568051 -0.000556178
-3.48633e-05 -3.78318e-06 5.8703e-06
-4.22279e-06 -3.10365e-07 3.40811e-07
-3.93763e-05 -4.31639e-06 7.96719e-06
-3.64135e-05 -4.3328e-06 7.97642e-06
-2.63373e-05 -2.55381e-06 4.54137e-06
-2.67652e-05 -2.50221e-06 4.2725e-06
-5.53217e-05 -9.05348e-06 1.63908e-05
-2.05651e-05 -1.80433e-06 2.48086e-06
0.00130205 0.000521194 -3.55653e-06
-3.60896e-06 -2.22463e-07 2.55136e-07
0.00135275 5.18604e-05 -0.000404229
0.00230627 -3.33658e-05 -0.000436455
0.00139718 0.000544015 -0.000542469
-8.65485e-06 -9.0808e-07 1.25279e-06
-1.02221e-05 -4.70888e-07 6.43771e-07
-4.18042e-05 -4.42491e-06 7.29006e-06
-4.36114e-05 -3.18064e-06 6.24771e-06
-2.79099e-05 -3.00449e-06 5.85393e-06
-0.000188788 -2.29132e-05 4.34606e-05
-3.27168e-05 -3.988e-06 7.373e-06
-5.92796e-05 -7.13734e-06 1.18081e-05
-2.60964e-05 -4.10434e-06 7.70445e-06
0.00206543 0.000750352 -0.000190409
-6.77135e-05 -8.81003e-06 1.42465e-05
-3.0079e-05 -4.20162e-06 7.25853e-06
-5.17914e-05 -7.17749e-06 1.22974e-05
-4.72426e-06 -4.76916e-07 5.9321e-07
-5.44903e-05 -8.71768e-06 1.49627e-05
-4.81381e-06 -4.89124e-07 6.92604e-07
-3.14716e-05 -3.78468e-06 7.16419e-06
-6.49498e-05 -9.60989e-06 1.46685e-05
-5.46659e-05 -6.74782e-06 1.33452e-05
-7.33494e-05 -8.01664e-06 1.39057e-05
-4.73667e-06 -2.00193e-07 2.94168e-07
-2.52879e-05 -4.54683e-06 7.62874e-06
-5.46857e-05 -7.72903e-06 1.19344e-05
-4.9875e-05 -7.25791e-06 1.22697e-05
0.00120944 0.000453387 2.58518e-05
-2.71412e-05 -4.22483e-06 8.04066e-06
-2.03018e-05 -1.19352e-06 1.64406e-06
-2.20641e-05 -4.05721e-06 7.07165e-06
-7.92197e-05 -1.2262e-05 2.13449e-05
-2.58454e-05 -4.48017e-06 6.93554e-06
-2.53454e-05 -2.76072e-06 5.12047e-06
-6.10266e-05 -8.66659e-06 1.6798e-05
-7.15275e-05 -9.57691e-06 1.79693e-05
-9.59895e-06 -4.73527e-07 6.7763e-07
0.0017279 0.000334553 0.000179336
-3.97826e-06 -2.24114e-07 2.12573e-07
-2.39358e-05 -3.77742e-06 6.9917e-06
-2.24435e-05 -3.91726e-06 6.37677e-06
0.0019611 0.000367277 -0.000649287
-3.43272e-06 -2.08019e-07 2.49368e-07
-4.01135e-05 -4.73206e-06 6.06779e-06
-1.89238e-05 -2.83854e-06 5.08055e-06
-3.2483e-05 -5.01568e-06 9.40031e-06
-2.90846e-05 -2.76179e-06 5.35376e-06
-3.43622e-05 -3.79248e-06 7.53757e-06
0.00109367 9.87546e-05 0.000241571
-3.45767e-06 -1.5356e-07 2.20674e-07
0.00183923 -0.000552201 0.000286235
-2.19675e-05 -3.03555e-06 5.87405e-06
-2.2507e-05 -3.96242e-06 7.07034e-06
-6.33915e-05 -1.07156e-05 1.84003e-05
-5.95816e-05 -7.4651e-06 1.45205e-05
-2.47663e-05 -2.74609e-06 5.365e-06
-2.1304e-05 -2.55636e-06 5.03119e-06
-3.56438e-05 -4.86495e-06 9.51097e-06
0.00143139 0.000409405 -0.000530429
-4.32748e-05 -4.18285e-06 7.96788e-06
-1.34361e-05 -1.26528e-06 1.96733e-06
-0.000111581 -1.77769e-05 3.06384e-05
-3.87278e-05 -6.50431e-06 1.17988e-05
-7.39065e-06 -8.08384e-07 1.14599e-06
-1.08388e-05 -1.151e-06 1.33389e-06
-3.2445e-06 -1.33678e-07 2.01243e-07
0.00284341 0.000792407 -8.55593e-05
-1.88618e-05 -2.83825e-06 5.35729e-06
-1.89036e-05 -3.17633e-06 4.90141e-06
-2.33681e-05 -2.9959e-06 5.56358e-06
0.00161026 0.000435935 -0.000693983
0.00165813 0.000460922 0.00109863
-1.91426e-05 -2.09807e-06 4.17157e-06
-4.57506e-05 -6.44666e-06 1.25692e-05
-8.95769e-06 -7.81821e-07 1.18359e-06
-8.41849e-06 -5.9738e-07 9.73247e-07
-1.84161e-05 -2.83865e-06 5.13857e-06
-1.21512e-05 -1.20287e-06 2.44577e-06
-3.07359e-05 -4.51224e-06 8.62022e-06
-2.43892e-05 -3.22893e-06 6.11863e-06
-2.50737e-05 -3.88538e-06 6.90849e-06
-9.21652e-06 -1.03819e-06 1.70465e-06
-1.83233e-05 -3.51906e-06 5.87225e-06
-1.26968e-05 -2.37454e-06 3.86007e-06
-1.14178e-05 -1.86449e-06 3.13024e-06
-4.60755e-05 -6.87949e-06 1.13363e-05
-1.78674e-05 -2.43149e-06 4.64251e-06
-1.46374e-05 -1.00002e-06 1.87286e-06
-2.05372e-05 -1.60311e-06 3.46529e-06
-8.33666e-06 -6.76645e-07 1.39312e-06
-1.9804e-05 -2.66786e-06 4.91401e-06
-8.25605e-06 -5.97379e-07 7.68497e-07
-3.41298e-05 -5.74877e-06 1.0335e-05
0.00190943 -3.76821e-05 0.00017193
-4.75499e-05 -6.53055e-06 1.28583e-05
-3.07698e-05 -5.38102e-06 9.55412e-06
-3.95906e-05 -6.62607e-06 1.21509e-05
0.00160232 -9.91544e-05 -0.00050446
-6.05678e-06 -4.59151e-07 7.4885e-07
-2.2455e-05 -2.48758e-06 4.82515e-06
-4.35245e-05 -5.18504e-06 1.01933e-05
-2.90034e-05 -3.60649e-06 7.08898e-06
-2.12078e-05 -2.82067e-06 4.16633e-06
-4.07121e-05 -4.88627e-06 7.16859e-06
-1.5239e-05 -2.21649e-06 3.10956e-06
-2.19717e-05 -3.05273e-06 5.05981e-06
-1.12952e-05 -6.46446e-07 1.54056e-06
-1.19798e-05 -1.5337e-06 2.60537e-06
-6.82155e-06 -5.36828e-07 7.02918e-07
-8.62962e-06 -6.54029e-07 8.9903e-07
-2.46231e-05 -4.32183e-06 7.79057e-06
-2.25427e-05 -2.79806e-06 4.22975e-06
-2.71596e-05 -4.30182e-06 7.98663e-06
-1.56573e-05 -2.59374e-06 4.46138e-06
-2.34089e-05 -4.30416e-06 7.13913e-06
0.00153008 -7.39692e-05 -1.47311e-05
-5.28107e-06 -3.35389e-07 3.82954e-07
0.00152945 -0.000733603 -0.000109486
-7.96257e-06 -1.23918e-06 1.93848e-06
-1.31874e-05 -1.99265e-06 2.76611e-06
-3.89453e-05 -4.63789e-06 7.70088e-06
-1.67707e-05 -2.79261e-06 4.84153e-06
-2.16207e-05 -2.31984e-06 3.84981e-06
-1.8295e-05 -1.85291e-06 3.10784e-06
-2.82493e-06 -2.0286e-07 1.71823e-07
-1.99668e-05 -3.33156e-06 6.05464e-06
-2.98663e-05 -4.2995e-06 8.29711e-06
-2.50555e-05 -3.84877e-06 6.15021e-06
-2.17088e-05 -2.09493e-06 4.12277e-06
-7.71177e-06 -5.2703e-07 8.77771e-07
-2.96456e-05 -4.01155e-06 7.86986e-06
-2.06729e-05 -1.49271e-06 2.08227e-06
-1.39554e-05 -2.0971e-06 3.66649e-06
-2.99649e-05 -5.39607e-06 9.53575e-06
-1.52687e-05 -1.85305e-06 2.99205e-06
-3.64264e-05 -5.45312e-06 1.03573e-05
-1.14489e-05 -1.77012e-06 2.50555e-06
-2.98073e-05 -3.41948e-06 6.44037e-06
-8.60826e-06 -8.31517e-07 9.3291e-07
0.00198412 0.000296498 0.000441216
-1.46949e-05 -1.25885e-06 2.54583e-06
-1.6459e-05 -1.57317e-06 2.75149e-06
-3.26007e-05 -3.02947e-06 4.12155e-06
-1.14876e-05 -1.4049e-06 1.77443e-06
-1.28519e-05 -1.16792e-06 1.66501e-06
-3.19767e-05 -2.63876e-06 4.03901e-06
0.00231447 -0.000787902 -4.44558e-05
0.00255345 0.00057056 -0.00085774
-1.12767e-05 -1.54836e-06 2.82273e-06
-3.94851e-05 -4.72277e-06 7.02514e-06
-1.02515e-05 -1.12873e-06 1.96067e-06
-2.70974e-05 -4.29963e-06 7.94027e-06
-3.15687e-05 -2.81008e-06 3.90681e-06
-2.30421e-05 -2.18724e-06 4.53496e-06
-2.83206e-05 -5.07871e-06 9.00232e-06
0.000457898 0.000699837 -0.000346997
-2.03402e-05 -3.93897e-06 6.73319e-06
-2.82805e-06 -3.15209e-07 5.02223e-07
0.000664104 0.000274422 -0.000932935
-6.62429e-06 -7.02031e-07 1.29017e-06
0.00216906 -0.000958822 0.000150045
-2.5927e-05 -4.83678e-06 8.47048e-06
-1.48275e-05 -2.88164e-06 5.08178e-06
0.000829595 -0.000887819 0.000100759
-1.31751e-05 -1.74169e-06 3.03423e-06
0.000665144 0.000970933 -0.000197882
-8.96503e-06 -1.28328e-06 2.57147e-06
-8.90705e-06 -1.45402e-06 2.64329e-06
-1.06915e-05 -1.46239e-06 2.49755e-06
-3.14863e-05 -4.66492e-06 8.97136e-06
-4.69089e-06 -5.79682e-07 1.03229e-06
0.000684952 -0.000235094 0.000714309
-3.28068e-05 -2.88228e-06 4.048e-06
-5.75013e-06 -4.74516e-07 9.88888e-07
-9.75823e-06 -1.27189e-06 2.59591e-06
0.000463722 -0.000475017 0.000872702
-1.71332e-05 -3.32644e-06 5.60293e-06
-2.13019e-05 -4.13145e-06 7.13005e-06
-9.64168e-06 -1.30927e-06 2.66649e-06
-8.02769e-06 -1.47859e-06 2.68576e-06
-2.8104e-06 -2.40373e-07 2.04321e-07
0.00163193 0.000481071 0.000343471
0.000814802 -0.000915928 0.000122884
0.000766743 -0.000952323 9.54529e-05
-1.67473e-05 -3.3241e-06 5.68668e-06
-7.06479e-06 -1.28606e-06 2.25101e-06
-9.54541e-06 -1.29102e-06 1.53213e-06
-1.10467e-05 -1.53302e-06 3.00094e-06
0.00055686 0.000688954 -0.000130499
0.000817398 0.000489882 -0.000487077
-2.78429e-06 -1.65007e-07 1.93562e-07
-4.39402e-06 -2.28181e-07 2.72985e-07
-2.20699e-05 -3.21062e-06 5.96762e-06
-3.89991e-06 -2.45438e-07 2.80724e-07
0.0010838 -0.000515075 -0.000227852
-2.51466e-05 -3.78719e-06 7.14546e-06
-4.42153e-06 -8.48596e-07 1.39709e-06