# vtk DataFile Version 4.2
vtk output
ASCII
DATASET UNSTRUCTURED_GRID

POINTS 343 double
0.0013681 0.00420506 -9.41321e-06
0.00264648 0.00500273 0.00215666
0 0.00419538 0.00112517
0.00235696 0.00197225 0.00192554
0.00633408 0.00246475 0.00498749
0.00633086 0.00388512 0.00635162
0.00933127 0.0048626 0.00493122
0.00761718 0.00491884 0.00363845
0.00837682 0.00336723 0.00685122
0.00610333 0.00504466 0.0049568
0.00512652 0.00116509 0.00995857
0.00647365 0.00213997 0.00785495
0.00514277 4.07493e-05 0.00827902
0.00245709 0.00202065 0.00801622
0.00525044 0.00257861 0.00995717
0.00850669 0.00652282 0.00688294
0.00784251 0.006252 0.00512691
0.00276153 0.00220585 0.0051268
0 0.00143586 0.00417514
0.00194479 0.00348042 0.00402349
0.00837662 0.00327316 0.0031034
0.00949732 0.00230756 0.00499448
0 0.00270918 0.00154168
0.00509828 0.00147586 -3.23642e-05
0.00613771 0.00224458 0.00215546
0.00484802 0.00356803 0.00157031
0.00164481 1.11004e-05 0.00404862
0.00513457 4.06485e-05 0.0016527
0.00320258 0.00697659 -2.03398e-05
0.00235718 0.00807037 0.00192806
0.00499256 0.00628867 0.00161126
0.00978232 0.00807354 0.00792048
0.00975317 0.00490784 0.0079456
0.0102588 0.00617604 0.00587051
0.0122042 0.00893447 0.00410522
0.00925965 0.00771889 0.00489661
0.0104586 0.0100757 0.00409195
0.00974724 0.00805976 0.00194913
0.00432467 0.00307179 0.00692915
0.00543032 0.00370748 0.00828216
0.00476861 0.00164304 0.00593558
0.00611112 0.00771905 0.00763083
0.00242092 0.0080262 0.00797308
0.00344056 0.0100231 0.00710311
0.00477526 0.00843763 0.00592398
0 0.00695361 0.00262895
0.00200508 0.00625438 0.00407386
0 0.0040177 0.00850214
0.00282221 0.00500681 0.00764198
0.00174687 0.00418702 0.00998796
0.00877332 0.0071956 0.00992677
0.00748196 0.00603589 0.0083589
0.00249707 0.00796021 0.00472437
0.0037116 0.00697222 0.00644229
0.00193305 0.00609279 0.00591252
0.0122119 0.00590096 0.00821336
0 0.00718191 0.00711644
0.00192957 0.00578816 -1.30973e-05
0 0.00577432 0.00158701
0.0122086 0.00727175 0.00701712
0.00350571 0.00337674 0.00997211
0.0122124 0.00153957 0.00408687
0.00985567 0.00204217 0.00191211
0.0102748 0.00360256 0.00392466
0.00456454 0.0016886 0.00409618
0.00183295 0.0100126 0.00580227
0.00344512 2.65893e-05 0.00710383
0.00748101 0.00423833 0.00831725
0.0122035 0.00736578 0.00410787
0.0104697 8.48019e-05 0.00409218
0.00408924 0.00290419 -2.5883e-05
0.00330568 0.00156613 0.0099739
0.00345654 2.67597e-05 0.00280779
0.00586654 0.00524326 0.00751006
0.00386115 0.0031774 0.0031399
0 0.00849157 0.00581511
0.00595446 0.00372159 0.00374433
0.00187574 0.00272237 -1.26762e-05
0.00708342 0.00837577 0.00994131
0.0073018 0.010051 0.00844814
0.00513649 0.0100353 0.00827855
0.00490197 0.00853809 0.00996005
0.0122052 0.00857685 0.00571975
0.00383897 0.00686414 0.00312311
0 0.00748929 0.00137438
0.00166989 0.00750109 -1.13903e-05
0 0.00287343 0.00335182
0 0.00580816 0.00831736
0 0.00429792 0.00253898
0.00309376 0.00432051 -1.97739e-05
0.00174615 0.00583177 0.0099879
0.00632324 0.00652202 0.00635395
0.00439868 0.00654382 0.00820078
0.00850072 0.0026943 0.00992908
0.00981357 0.00203726 0.00795724
0.00852382 6.90024e-05 0.00302247
0.00735858 0.00172305 0.00356133
0.0122088 0.00297293 0.00326542
0 0.00140616 0.00256446
0.00778392 0.00828389 0.00636298
0.00711191 0.00149269 -4.56691e-05
0.00737616 0.00360921 0.00155346
0.00384378 0.0100261 0.00579734
0.0104532 0.010076 0.00575324
0.0031274 0.00142985 -2.00795e-05
0.00730685 5.89626e-05 0.00144444
0.00766906 0.0083431 0.00356296
0.0104651 8.48758e-05 0.00575359
0.00758811 0.00173341 0.00630892
0.00171084 0.00257595 0.00998806
0.00869288 0.00724567 -5.71743e-05
0.00630669 0.00773565 0.00212519
0.00725851 0.00614712 0.00155277
0 0.00686719 0.00578184
0.0122131 0.00151038 0.00248114
0.00216156 0.00362571 0.0063928
0.012204 0.0085717 0.00253892
0.010276 0.00626648 0.00405884
0.0072981 0.0100513 0.00144375
0.00852535 6.90532e-05 0.00686218
0.012214 0.00153902 0.00572457
0.0102636 0.00365373 0.00598244
0.00183592 1.25578e-05 0.00580256
0 0.0013659 0.00748679
0.00166643 1.15567e-05 0.00751787
0.012206 0.00695834 0.00568576
0.00710021 0.00854268 -4.6691e-05
0 0.0075208 0.00859127
0.00166096 0.00749849 0.00998847
0.00516062 0.00824219 0.00359153
0.0104973 0.0100752 0.0074282
0.0122101 0.00871494 0.00742499
0.00706057 0.00164299 0.0099417
0.00887643 0.00425602 0.00992547
0 0.0057735 0.00666667
0.00166421 0.0100114 0.00751735
0 0.00863025 0.00752641
0.0105025 8.64076e-05 0.00243422
0.0122033 0.00704557 0.00254466
0.0103337 0.0064194 0.00209217
0.0104054 0.00590234 0.00991318
0.00916289 0.00144847 0.00992365
0.0105088 8.65008e-05 0.00742937
0.0122186 0.00146965 0.00738637
0 0.00143551 0.00581971
0.00731003 5.90244e-05 0.00844871
0.00514677 4.08011e-05 0.00336387
0.00969591 0.00478273 0.00196865
0.0122061 0.00439441 0.00245588
0.00515578 0.0100354 0.00662873
0.00345084 0.0100227 0.0028072
0.0015978 1.10482e-05 0.00240704
0 0.00727418 0.00419576
0.0122083 0.00586657 0.00656818
0.00851402 0.0100604 0.00302146
0.00917579 0.00870249 0.00992306
0 0.00574334 0.00336387
0 0.0043297 0.00416652
0.00839664 0.00584626 0.00992993
0.0122122 0.00312113 0.00681774
0.00516206 4.10613e-05 0.0066295
0.00301695 0.0100202 0.0085893
0.00915277 0.00144087 -5.94682e-05
0.00705456 0.00671791 0.00994146
0.012213 0.00760953 0.00848575
0.0105252 0.00763022 0.00991165
0.00845074 0.00308911 -5.4592e-05
0.00410179 0.00577323 -2.60697e-05
0.00919437 0.00869718 -6.03245e-05
0.00917825 0.0100654 0.0013247
0.00706037 0.0069186 -4.60873e-05
0.00851983 0.00643448 0.00297368
0.00918905 7.59763e-05 0.00132499
0.00351805 0.00502376 0.00997215
0.00528756 0.00587139 0.00995662
0.00528798 0.00420496 0.00995667
0.00918488 0.0100646 0.00854178
0.0030208 2.31635e-05 0.00859011
0.0122044 0.00583693 0.00327792
0 0.00302218 0.00691532
0.0122149 0.00411518 0.00839674
0.0103908 0.00409994 -6.75281e-05
0.0122105 0.00280918 0.00146358
0 0.00244495 0.00857025
0.00297994 0.0085911 0.00997676
0.00919482 7.59426e-05 0.00854268
0.0103839 0.0027065 0.0099131
0.0108244 0.00427856 0.00990874
0.00692187 0.0100483 0.00578234
0.00633066 0.00762913 0.00498698
0.00688702 0.0100478 0.00416566
0.00851545 0.0100605 0.00686176
0.00368634 0.00694154 0.00997069
0.00508503 0.00436786 -3.23802e-05
0.00345988 2.65389e-05 0.00438063
0.00384853 2.99602e-05 0.00579876
0.0122084 0.00429252 0.00104817
0.00443573 0.00836904 0.0015577
0.0122066 0.00442575 0.00407776
0.00814363 0.00583414 -5.33486e-05
0.010491 0.0100756 0.00243371
0 0.00848692 0.00262374
0.00164222 0.0100116 0.00404834
0 0.00885053 0.00419359
0.00511598 0.0088866 -3.32967e-05
0.00512789 0.010035 0.00165241
0.00610353 0.00483714 0.0023372
0.00882118 0.00458978 -5.72716e-05
0.00689429 5.54003e-05 0.00416703
0.0069298 5.5863e-05 0.0057833
0.00159506 0.010011 0.00240668
0.0104764 0.00253031 -6.8506e-05
0.0122102 0.00461785 0.00712012
0.00868822 0.010062 0.00493613
0.00702034 0.00341745 0.00994164
0.00299834 2.31183e-05 0.00133602
0.0122192 0.00254625 0.00846444
0.00291748 0.00481202 0.00497943
0.00712497 0.00438459 -4.59375e-05
0.0101635 0.0058848 -6.58425e-05
0.00668896 0.0100465 0.0071696
0.0122077 0.00442615 0.00573861
0.00659365 0.0100457 0.00272948
0.00869859 7.02656e-05 0.00493656
0.00345446 0.010023 0.00437959
0 0.00452174 0.00721958
0.00552053 0.00725934 0.00995466
0.00669672 5.39113e-05 0.00716995
0.00439442 0.00510604 0.00356532
0.0051852 0.0100352 0.00497072
0.00519156 4.14218e-05 0.00497233
0.00447713 0.00524917 0.00614304
0 0.005744 0.00499998
0 0.00433013 0.00583333
0.00610406 0.00578903 -3.93548e-05
0.00608478 0.00638382 0.00351089
0.00660105 5.29335e-05 0.00273019
0.0122056 0.00583632 0.00490785
0.00450037 0.0064407 0.00481222
0.0070194 0.00505161 0.00994159
0.0122059 0.00586696 0.00150829
0 0.00666667 0
0.0104964 0.00759796 -6.83026e-05
0.00406956 3.28049e-05 -2.63341e-05
0 0.01 0.00666667
0.00610688 0.0100419 0.00994985
0 0.00288419 0.00499914
0.0122047 0.00757891 0.00129595
0.012208 0.00675716 -7.61302e-05
0 0.005 0.01
0.00610547 0.00293148 -3.8982e-05
0 0.005 0
0.0122205 0.000107557 0.00324764
0.0122135 0.0100806 0.00656771
0.00511914 0.00731085 -3.30488e-05
0.0122099 0.00298367 0.00490728
0.00611008 5.01559e-05 -3.98557e-05
0 0 0.00666667
0.00463455 0.00365078 0.00519366
0.00611379 4.89476e-05 0.00995034
0.012224 0.00010738 0.00656894
0 0 0.005
0.0107261 0.0100763 0.00114875
0.0122068 0.00886442 0.00114231
0.0122214 0.000107173 0.00490778
0.0122101 0.00509522 -7.52742e-05
0.00148425 0.00123058 -1.00457e-05
0 0.00122008 0.00122008
0 0.00333333 0.01
0 0.00666667 0.01
0.0107263 0.00885694 -6.98821e-05
0.0122095 0.0100799 0.00324649
0.00513999 0.0100349 0.00336289
0.0122216 0.00675737 0.00988921
0 0.00333333 0
0 0.00122008 0.00877992
0.00148468 1.05061e-05 0.00877009
0.00148422 0.00123037 0.00998958
0.0107331 0.0100757 0.00869044
0.00148323 0.00879027 0.00998958
0 0.00877992 0.00877992
0.0122152 0.00886376 0.00867402
0.00814165 0.010057 -5.43872e-05
0.0122159 0.00132549 0.00114199
0.00148296 0.0100101 0.00876953
0.0107367 0.00885597 0.00990888
0.0122236 0.0050947 0.00988964
0 0 0.00333333
0.00815085 6.76067e-05 -5.36062e-05
0.0107372 9.02688e-05 0.00114828
0.00147451 1.04921e-05 0.00120132
0 0.00877992 0.00122008
0.00148183 0.0087904 -1.01702e-05
0.00147175 0.01001 0.00120113
0.0122243 0.00132485 0.00867427
0.0107455 0.00130949 0.0099094
0.0081564 6.65551e-05 0.00993264
0.0107356 0.00131028 -6.99912e-05
0.0107446 8.98265e-05 0.00869152
0.0122133 0.00343287 -7.5129e-05
0.00406656 0.0100275 0.00996706
0.00299307 0.0100197 0.00133565
0.00814762 0.0100569 0.00993212
0.0122254 0.00343151 0.00988938
0 0.01 0.005
0.0031957 0.00850928 -2.05533e-05
0.0122106 0.0100802 0.00490837
0 0.01 0.00333333
0 0.00166667 0
0.0122214 0.000107414 0.00158674
0 0.00166667 0.01
0 0.00833333 0
0.0122091 0.0084201 -7.66212e-05
0.0122287 0.000107336 0.00823027
0.0122107 0.0100816 0.0015872
0.012218 0.010081 0.00822922
0.00202838 0.0100134 0.00998489
0 0.01 0.00833333
0.0101822 0.0100718 -6.71317e-05
0.0101927 8.65441e-05 -6.71926e-05
0.0102018 8.55672e-05 0.00991474
0.0101911 0.0100711 0.00991414
0 0 0.00833333
0.0122218 0.00841805 0.00989016
0.00203073 1.58012e-05 -1.36826e-05
0 0 0.00166667
0.00406336 0.0100273 -2.62812e-05
0.0122297 0.00177094 0.00989048
0.0122182 0.00177192 -7.59209e-05
0.00203063 1.51288e-05 0.0099852
0.00202666 0.0100133 -1.36193e-05
0 0.01 0.00166667
0.0122244 0.010083 0.00989146
0 0 0.01
0.0122131 0.0100823 -7.76776e-05
0.0122357 0.000106337 0.00989283
0 0.01 0.01
0.0122248 0.000107165 -7.75537e-05
0 0.01 0
0 0 0
0.00610229 0.0100419 -4.04104e-05
0.00407185 3.17109e-05 0.00996748
0 0.00833333 0.01

CELLS 343 686
1 0
1 1
1 2
1 3
1 4
1 5
1 6
1 7
1 8
1 9
1 10
1 11
1 12
1 13
1 14
1 15
1 16
1 17
1 18
1 19
1 20
1 21
1 22
1 23
1 24
1 25
1 26
1 27
1 28
1 29
1 30
1 31
1 32
1 33
1 34
1 35
1 36
1 37
1 38
1 39
1 40
1 41
1 42
1 43
1 44
1 45
1 46
1 47
1 48
1 49
1 50
1 51
1 52
1 53
1 54
1 55
1 56
1 57
1 58
1 59
1 60
1 61
1 62
1 63
1 64
1 65
1 66
1 67
1 68
1 69
1 70
1 71
1 72
1 73
1 74
1 75
1 76
1 77
1 78
1 79
1 80
1 81
1 82
1 83
1 84
1 85
1 86
1 87
1 88
1 89
1 90
1 91
1 92
1 93
1 94
1 95
1 96
1 97
1 98
1 99
1 100
1 101
1 102
1 103
1 104
1 105
1 106
1 107
1 108
1 109
1 110
1 111
1 112
1 113
1 114
1 115
1 116
1 117
1 118
1 119
1 120
1 121
1 122
1 123
1 124
1 125
1 126
1 127
1 128
1 129
1 130
1 131
1 132
1 133
1 134
1 135
1 136
1 137
1 138
1 139
1 140
1 141
1 142
1 143
1 144
1 145
1 146
1 147
1 148
1 149
1 150
1 151
1 152
1 153
1 154
1 155
1 156
1 157
1 158
1 159
1 160
1 161
1 162
1 163
1 164
1 165
1 166
1 167
1 168
1 169
1 170
1 171
1 172
1 173
1 174
1 175
1 176
1 177
1 178
1 179
1 180
1 181
1 182
1 183
1 184
1 185
1 186
1 187
1 188
1 189
1 190
1 191
1 192
1 193
1 194
1 195
1 196
1 197
1 198
1 199
1 200
1 201
1 202
1 203
1 204
1 205
1 206
1 207
1 208
1 209
1 210
1 211
1 212
1 213
1 214
1 215
1 216
1 217
1 218
1 219
1 220
1 221
1 222
1 223
1 224
1 225
1 226
1 227
1 228
1 229
1 230
1 231
1 232
1 233
1 234
1 235
1 236
1 237
1 238
1 239
1 240
1 241
1 242
1 243
1 244
1 245
1 246
1 247
1 248
1 249
1 250
1 251
1 252
1 253
1 254
1 255
1 256
1 257
1 258
1 259
1 260
1 261
1 262
1 263
1 264
1 265
1 266
1 267
1 268
1 269
1 270
1 271
1 272
1 273
1 274
1 275
1 276
1 277
1 278
1 279
1 280
1 281
1 282
1 283
1 284
1 285
1 286
1 287
1 288
1 289
1 290
1 291
1 292
1 293
1 294
1 295
1 296
1 297
1 298
1 299
1 300
1 301
1 302
1 303
1 304
1 305
1 306
1 307
1 308
1 309
1 310
1 311
1 312
1 313
1 314
1 315
1 316
1 317
1 318
1 319
1 320
1 321
1 322
1 323
1 324
1 325
1 326
1 327
1 328
1 329
1 330
1 331
1 332
1 333
1 334
1 335
1 336
1 337
1 338
1 339
1 340
1 341
1 342

CELL_TYPES 343
1
1
1
1
1
1
1
1
1
1
1
1
1
1
1
1
1
1
1
1
1
1
1
1
1
1
1
1
1
1
1
1
1
1
1
1
1
1
1
1
1
1
1
1
1
1
1
1
1
1
1
1
1
1
1
1
1
1
1
1
1
1
1
1
1
1
1
1
1
1
1
1
1
1
1
1
1
1
1
1
1
1
1
1
1
1
1
1
1
1
1
1
1
1
1
1
1
1
1
1
1
1
1
1
1
1
1
1
1
1
1
1
1
1
1
1
1
1
1
1
1
1
1
1
1
1
1
1
1
1
1
1
1
1
1
1
1
1
1
1
1
1
1
1
1
1
1
1
1
1
1
1
1
1
1
1
1
1
1
1
1
1
1
1
1
1
1
1
1
1
1
1
1
1
1
1
1
1
1
1
1
1
1
1
1
1
1
1
1
1
1
1
1
1
1
1
1
1
1
1
1
1
1
1
1
1
1
1
1
1
1
1
1
1
1
1
1
1
1
1
1
1
1
1
1
1
1
1
1
1
1
1
1
1
1
1
1
1
1
1
1
1
1
1
1
1
1
1
1
1
1
1
1
1
1
1
1
1
1
1
1
1
1
1
1
1
1
1
1
1
1
1
1
1
1
1
1
1
1
1
1
1
1
1
1
1
1
1
1
1
1
1
1
1
1
1
1
1
1
1
1
1
1
1
1
1
1
1
1
1
1
1
1
1
1
1
1
1
1
1
1
1
1
1
1
1
1
1
1
1
1
1
1
1
1
1
1
1
1
1
1
1
1

POINT_DATA 343
FIELD FieldData 8

NodeID_(#) 1 343 int
0
1
2
3
4
5
6
7
8
9
10
11
12
13
14
15
16
17
18
19
20
21
22
23
24
25
26
27
28
29
30
31
32
33
34
35
36
37
38
39
40
41
42
43
44
45
46
47
48
49
50
51
52
53
54
55
56
57
58
59
60
61
62
63
64
65
66
67
68
69
70
71
72
73
74
75
76
77
78
79
80
81
82
83
84
85
86
87
88
89
90
91
92
93
94
95
96
97
98
99
100
101
102
103
104
105
106
107
108
109
110
111
112
113
114
115
116
117
118
119
120
121
122
123
124
125
126
127
128
129
130
131
132
133
134
135
136
137
138
139
140
141
142
143
144
145
146
147
148
149
150
151
152
153
154
155
156
157
158
159
160
161
162
163
164
165
166
167
168
169
170
171
172
173
174
175
176
177
178
179
180
181
182
183
184
185
186
187
188
189
190
191
192
193
194
195
196
197
198
199
200
201
202
203
204
205
206
207
208
209
210
211
212
213
214
215
216
217
218
219
220
221
222
223
224
225
226
227
228
229
230
231
232
233
234
235
236
237
238
239
240
241
242
243
244
245
246
247
248
249
250
251
252
253
254
255
256
257
258
259
260
261
262
263
264
265
266
267
268
269
270
271
272
273
274
275
276
277
278
279
280
281
282
283
284
285
286
287
288
289
290
291
292
293
294
295
296
297
298
299
300
301
302
303
304
305
306
307
308
309
310
311
312
313
314
315
316
317
318
319
320
321
322
323
324
325
326
327
328
329
330
331
332
333
334
335
336
337
338
339
340
341
342

Component_(#) 1 343 int
0
0
0
0
0
0
0
0
0
0
0
0
0
0
0
0
0
0
0
0
0
0
0
0
0
0
0
0
0
0
0
0
0
0
0
0
0
0
0
0
0
0
0
0
0
0
0
0
0
0
0
0
0
0
0
0
0
0
0
0
0
0
0
0
0
0
0
0
0
0
0
0
0
0
0
0
0
0
0
0
0
0
0
0
0
0
0
0
0
0
0
0
0
0
0
0
0
0
0
0
0
0
0
0
0
0
0
0
0
0
0
0
0
0
0
0
0
0
0
0
0
0
0
0
0
0
0
0
0
0
0
0
0
0
0
0
0
0
0
0
0
0
0
0
0
0
0
0
0
0
0
0
0
0
0
0
0
0
0
0
0
0
0
0
0
0
0
0
0
0
0
0
0
0
0
0
0
0
0
0
0
0
0
0
0
0
0
0
0
0
0
0
0
0
0
0
0
0
0
0
0
0
0
0
0
0
0
0
0
0
0
0
0
0
0
0
0
0
0
0
0
0
0
0
0
0
0
0
0
0
0
0
0
0
0
0
0
0
0
0
0
0
0
0
0
0
0
0
0
0
0
0
0
0
0
0
0
0
0
0
0
0
0
0
0
0
0
0
0
0
0
0
0
0
0
0
0
0
0
0
0
0
0
0
0
0
0
0
0
0
0
0
0
0
0
0
0
0
0
0
0
0
0
0
0
0
0
0
0
0
0
0
0
0
0
0
0
0
0
0
0
0
0
0
0
0
0
0
0
0
0
0
0
0
0
0
0
0
0
0
0
0
0

NodalMass_(kg) 1 343 double
3.15563e-06
1.41304e-05
2.20912e-06
1.71484e-05
8.42e-06
9.09306e-06
1.01179e-05
7.52198e-06
6.81096e-06
5.58223e-06
3.10888e-06
1.07575e-05
4.87011e-06
1.64955e-05
3.0246e-06
8.05984e-06
6.703e-06
1.0877e-05
4.18978e-06
8.16106e-06
6.14143e-06
1.17902e-05
2.23114e-06
4.25176e-06
1.09915e-05
7.41467e-06
4.21871e-06
3.92484e-06
3.08766e-06
1.31268e-05
7.72627e-06
1.65404e-05
1.19037e-05
7.97564e-06
3.81683e-06
1.11001e-05
3.81317e-06
1.39137e-05
6.37414e-06
8.00975e-06
7.6712e-06
1.21135e-05
1.6399e-05
2.78633e-06
8.93599e-06
2.58087e-06
7.57362e-06
4.23241e-06
1.31286e-05
3.80168e-06
2.7746e-06
7.16776e-06
1.21307e-05
5.11765e-06
8.19728e-06
4.58094e-06
2.79503e-06
3.26126e-06
4.12443e-06
2.11915e-06
3.35177e-06
3.61669e-06
1.56838e-05
7.33679e-06
8.24695e-06
5.00369e-06
2.82625e-06
7.20276e-06
3.26815e-06
4.18751e-06
2.02785e-06
2.42152e-06
3.11835e-06
5.97459e-06
5.87101e-06
4.09374e-06
5.45463e-06
2.28825e-06
4.49759e-06
4.38192e-06
4.50892e-06
4.39234e-06
4.27273e-06
5.32031e-06
1.53201e-06
2.38869e-06
2.02885e-06
4.38798e-06
3.17972e-06
3.14298e-06
4.61567e-06
5.87645e-06
8.18088e-06
2.48341e-06
1.53815e-05
3.49683e-06
7.35227e-06
2.01314e-06
2.0408e-06
7.98183e-06
4.41293e-06
7.1389e-06
1.20123e-06
5.03343e-06
1.61257e-06
4.12601e-06
8.73748e-06
4.37849e-06
7.97173e-06
2.13557e-06
3.38137e-06
9.48623e-06
7.40262e-06
1.80226e-06
2.10222e-06
7.98889e-06
1.87983e-06
7.44814e-06
4.19782e-06
2.37156e-06
4.31705e-06
6.06441e-06
4.30905e-06
2.16843e-06
1.8986e-06
1.81294e-06
3.89762e-06
2.44299e-06
1.65628e-06
8.01374e-06
1.64513e-06
2.3931e-06
3.01363e-06
2.99431e-06
1.36541e-06
1.87293e-06
2.09622e-06
1.94762e-06
1.87618e-06
6.37913e-06
4.58628e-06
2.02767e-06
1.61999e-06
2.41284e-06
3.8865e-06
4.44973e-06
2.29839e-06
1.17349e-05
3.11811e-06
1.354e-06
3.45063e-06
1.81846e-06
2.9382e-06
1.37381e-06
2.41464e-06
2.10451e-06
2.63927e-06
2.14166e-06
1.7943e-06
3.19976e-06
1.36989e-06
2.43489e-06
2.08158e-06
1.3601e-06
2.17203e-06
1.89924e-06
3.16996e-06
2.6119e-06
2.37677e-06
1.60225e-06
1.90684e-06
5.49206e-06
1.87878e-06
3.14313e-06
2.97301e-06
1.18454e-06
1.89263e-06
2.04166e-06
2.73572e-06
2.42405e-06
3.23083e-06
3.19752e-06
3.2142e-06
1.94492e-06
1.61196e-06
1.86876e-06
3.22435e-06
2.1114e-06
2.96917e-06
6.15288e-06
2.3097e-06
2.39729e-06
2.38029e-06
2.64508e-06
1.66557e-06
1.82377e-06
2.06583e-06
5.73271e-06
2.08467e-06
2.18324e-06
2.43522e-06
3.1188e-06
3.17316e-06
2.05447e-06
1.9592e-06
3.05718e-06
6.44327e-06
2.08796e-06
2.72615e-06
2.15709e-06
1.86812e-06
2.0028e-06
2.10999e-06
2.88994e-06
2.3222e-06
2.3979e-06
1.97629e-06
6.4127e-06
2.16225e-06
3.29198e-06
2.10223e-06
2.66566e-06
1.94415e-06
2.91865e-06
2.58116e-06
2.11703e-06
2.09534e-06
1.91719e-06
7.06046e-06
2.25203e-06
2.06378e-06
6.28159e-06
2.12147e-06
2.90924e-06
2.12921e-06
6.4487e-06
1.41701e-06
2.0682e-06
6.58062e-06
2.52584e-06
2.39732e-06
7.42191e-07
2.22368e-06
7.06751e-07
7.00657e-07
8.93749e-07
2.53536e-06
2.26535e-06
1.33607e-06
7.84725e-07
2.32303e-06
6.06694e-07
6.68276e-07
6.84307e-07
2.51242e-06
2.31629e-06
7.8367e-07
6.80839e-07
6.22692e-06
6.7471e-07
6.65305e-07
7.01158e-07
1.8232e-06
1.90695e-06
6.86722e-07
7.04792e-07
1.86445e-06
2.28572e-06
6.8045e-07
7.16005e-07
1.82373e-06
6.01079e-07
2.02791e-06
7.4579e-07
5.74423e-07
1.80052e-06
1.454e-06
2.2702e-06
1.80636e-06
2.15356e-06
1.79089e-06
1.79456e-06
6.8231e-07
2.24737e-06
1.45239e-06
1.79556e-06
6.97875e-07
6.24265e-07
6.62717e-07
1.44627e-06
1.40138e-06
2.15258e-06
1.82851e-06
1.3994e-06
1.43932e-06
2.19226e-06
6.97732e-07
1.77726e-06
1.79162e-06
6.54258e-07
7.3397e-07
2.34895e-06
7.10392e-07
6.56982e-07
6.26314e-07
2.18926e-06
6.12493e-07
6.03901e-07
5.92831e-07
5.12031e-07
5.11667e-07
4.9467e-07
4.97016e-07
4.96269e-07
5.33079e-07
4.94191e-07
4.97855e-07
4.86862e-07
4.90626e-07
4.94649e-07
4.94954e-07
4.91922e-07
4.89615e-07
4.96354e-07
4.95189e-07
4.82188e-07
1.10854e-06
5.3299e-07
5.44763e-07
5.36655e-07
5.15417e-07
5.01772e-07
5.53774e-07
5.53774e-07
5.53774e-07
5.53774e-07
5.53774e-07
5.53774e-07
5.50785e-07
5.50785e-07
7.45291e-07
7.11668e-07
4.9897e-07

NodalForce_(N) 3 343 double
-7.44051e-06 -3.48802e-07 2.67631e-07
-6.37984e-05 -4.21686e-06 3.09793e-06
-0.000148808 -0.000158165 0.000616545
-7.73607e-05 -4.16715e-06 3.00799e-06
-0.000101673 -1.37436e-05 9.15085e-06
-0.000106864 -1.50096e-05 9.42095e-06
-0.000148059 -3.52955e-05 2.39687e-05
-9.02715e-05 -1.81702e-05 1.31238e-05
-0.000102833 -1.91493e-05 1.18355e-05
-5.80619e-05 -8.88385e-06 5.76472e-06
-3.44777e-05 -4.55668e-06 2.13333e-06
-0.000141674 -2.00959e-05 1.09408e-05
-5.53215e-05 -6.57596e-06 2.89359e-06
-8.43363e-05 -4.98621e-06 3.09327e-06
-3.27962e-05 -4.18855e-06 2.42695e-06
-0.000106245 -2.55746e-05 1.45437e-05
-8.01927e-05 -1.81022e-05 1.12527e-05
-5.96364e-05 -3.53668e-06 2.30421e-06
0.00148355 0.000343128 0.00069822
-2.98873e-05 -1.17911e-06 8.69339e-07
-8.43137e-05 -1.70657e-05 1.33709e-05
-0.000195399 -4.0467e-05 2.9482e-05
0.00236231 0.000321373 0.000672208
-3.69934e-05 -4.93577e-06 4.21771e-06
-0.000119542 -1.75111e-05 1.55829e-05
-5.9712e-05 -7.3384e-06 7.15032e-06
-1.46445e-05 -4.10206e-07 3.77135e-07
-3.85789e-05 -4.23371e-06 3.9645e-06
-1.32298e-05 -1.30184e-06 1.52099e-06
-4.61152e-05 -2.81e-06 3.1847e-06
-5.59139e-05 -7.68455e-06 7.98759e-06
-0.000228017 -7.33967e-05 3.79954e-05
-0.00019208 -4.54837e-05 2.56149e-05
-0.000118552 -3.47333e-05 2.12432e-05
-5.11477e-05 -2.33389e-05 1.45375e-05
-0.000137299 -4.31082e-05 2.57608e-05
-4.29524e-05 -1.9665e-05 1.16684e-05
-0.000156621 -5.84185e-05 4.24818e-05
-5.41735e-05 -5.36764e-06 3.21483e-06
-8.47223e-05 -1.03621e-05 6.94272e-06
-7.54158e-05 -8.04658e-06 4.1817e-06
-0.000115082 -2.38164e-05 1.39497e-05
-6.81111e-05 -5.85353e-06 4.1519e-06
-1.29654e-05 -2.26876e-06 1.29837e-06
-6.23718e-05 -1.14133e-05 6.43599e-06
0.000730707 -0.00068661 -0.00011057
-2.58884e-05 -1.75255e-06 1.36584e-06
0.00101267 0.000125234 -0.000234234
-6.88948e-05 -5.26195e-06 3.59539e-06
-1.3023e-05 -9.32844e-07 4.64167e-07
-3.79502e-05 -1.02242e-05 5.1869e-06
-8.98435e-05 -1.82126e-05 1.06342e-05
-4.88861e-05 -3.19435e-06 3.05615e-06
-3.19355e-05 -3.19719e-06 2.32792e-06
-2.82644e-05 -1.75992e-06 1.33226e-06
-7.96318e-05 -2.61153e-05 1.43934e-05
0.000313887 -0.000388757 -0.000218883
-9.81366e-06 -6.07565e-07 5.24432e-07
0.0022188 -0.000694254 0.000956042
-3.36934e-05 -1.2654e-05 7.00919e-06
-2.39156e-05 -2.3387e-06 1.42293e-06
-6.84472e-05 -1.84256e-05 1.42238e-05
-0.000247991 -5.62058e-05 4.85443e-05
-0.000117334 -2.97379e-05 2.20996e-05
-7.52787e-05 -7.73929e-06 4.50588e-06
-1.34143e-05 -7.44058e-07 8.89544e-07
-2.17719e-05 -1.83892e-06 7.89271e-07
-9.84852e-05 -1.68947e-05 1.02665e-05
-4.78935e-05 -1.97147e-05 1.22932e-05
-7.79825e-05 -1.54989e-05 1.30097e-05
-1.3349e-05 -1.37717e-06 1.38613e-06
-1.74176e-05 -1.68658e-06 8.43994e-07
-2.2601e-05 -1.66814e-06 1.02062e-06
-6.30556e-05 -8.86083e-06 5.87631e-06
-4.18612e-05 -3.52293e-06 2.45001e-06
0.000455028 -0.000703343 -0.000423464
-5.70518e-05 -7.89771e-06 5.90439e-06
-7.66847e-06 -3.12888e-07 3.14726e-07
-4.84646e-05 -1.26396e-05 6.35446e-06
-4.18382e-05 -1.33328e-05 7.20064e-06
-3.19274e-05 -7.65553e-06 4.5519e-06
-3.4228e-05 -6.98246e-06 3.77336e-06
-6.14548e-05 -2.62782e-05 1.50024e-05
-3.21553e-05 -3.201e-06 2.57893e-06
0.00132478 0.000712176 1.33736e-05
-5.77696e-06 -1.60541e-07 2.55465e-07
0.00141612 0.000167397 -0.000698294
0.00326106 -7.5678e-05 -0.000611319
0.00138969 0.000437292 -0.000577441
-1.48894e-05 -1.27947e-06 1.36661e-06
-1.54806e-05 -1.05555e-06 6.58633e-07
-6.00285e-05 -1.08151e-05 6.4963e-06
-6.337e-05 -7.27003e-06 5.46839e-06
-4.04649e-05 -7.57251e-06 3.99203e-06
-0.000279471 -5.68976e-05 3.11226e-05
-5.49496e-05 -9.25335e-06 7.97238e-06
-9.87946e-05 -1.58144e-05 1.24721e-05
-3.5284e-05 -1.06313e-05 8.23676e-06
0.00199227 0.00062131 -0.000140611
-8.71937e-05 -2.401e-05 1.28551e-05
-5.18366e-05 -8.85684e-06 8.29823e-06
-8.32034e-05 -1.59048e-05 1.41994e-05
-6.0906e-06 -1.18516e-06 7.0856e-07
-6.02323e-05 -2.64191e-05 1.42557e-05
-8.8915e-06 -7.98947e-07 7.25758e-07
-5.50531e-05 -8.13729e-06 8.03384e-06
-8.48249e-05 -2.48147e-05 1.58504e-05
-8.45535e-05 -1.6428e-05 1.17045e-05
-0.000117902 -1.86169e-05 1.13347e-05
-7.52928e-06 -3.67051e-07 2.44219e-07
-3.34009e-05 -1.12486e-05 9.44478e-06
-7.66195e-05 -1.8027e-05 1.38815e-05
-7.30466e-05 -1.68114e-05 1.44122e-05
0.00147242 0.00055889 0.000178284
-3.82309e-05 -1.0628e-05 8.79768e-06
-3.3483e-05 -1.82972e-06 1.42131e-06
-2.42929e-05 -1.13228e-05 7.83295e-06
-0.00010497 -3.26326e-05 2.15446e-05
-3.02757e-05 -1.17583e-05 8.78362e-06
-4.07484e-05 -6.60655e-06 3.73675e-06
-8.46541e-05 -2.22272e-05 1.50398e-05
-0.000101729 -2.41536e-05 1.60028e-05
-1.68278e-05 -7.04465e-07 3.8711e-07
0.00178771 0.000385925 0.000172067
-6.86283e-06 -3.24896e-07 1.22188e-07
-2.84028e-05 -1.074e-05 6.41584e-06
-2.88213e-05 -9.30151e-06 8.30218e-06
0.00181296 0.00073839 -0.000397755
-5.10003e-06 -3.45122e-07 2.43385e-07
-5.66936e-05 -1.10502e-05 6.63584e-06
-2.07233e-05 -8.87946e-06 4.48123e-06
-3.56345e-05 -1.50363e-05 7.96627e-06
-4.42824e-05 -7.02087e-06 3.38195e-06
-4.75739e-05 -9.8401e-06 5.35189e-06
0.000429199 0.000270139 0.000533003
-4.74149e-06 -2.7851e-07 3.35562e-07
0.00165683 -0.000600744 0.000276454
-3.48246e-05 -7.22996e-06 6.50014e-06
-2.6558e-05 -1.11917e-05 7.71747e-06
-8.36958e-05 -2.85388e-05 2.09495e-05
-7.61644e-05 -2.08052e-05 1.05219e-05
-3.63869e-05 -7.19036e-06 3.37691e-06
-3.23027e-05 -6.39051e-06 3.60791e-06
-4.88831e-05 -1.25972e-05 7.37109e-06
0.0017483 0.000408931 -0.000819527
-6.97635e-05 -1.00342e-05 4.75395e-06
-2.41523e-05 -2.65832e-06 1.88003e-06
-0.0001612 -4.52242e-05 3.50409e-05
-5.02021e-05 -1.72201e-05 1.30776e-05
-9.05295e-06 -2.30974e-06 1.19076e-06
-1.42387e-05 -2.46058e-06 1.61863e-06
-5.91312e-06 -1.68028e-07 1.46978e-07
0.00311098 0.00121063 0.000111028
-2.31111e-05 -7.75848e-06 4.59533e-06
-2.17084e-05 -8.93233e-06 5.65202e-06
-2.75316e-05 -9.03854e-06 4.42181e-06
0.00167451 0.000583742 -0.000827561
0.00148723 0.000776087 0.00168395
-2.54004e-05 -5.62547e-06 3.09927e-06
-6.0589e-05 -1.67454e-05 1.04212e-05
-1.54404e-05 -1.75721e-06 7.60479e-07
-1.04193e-05 -1.7249e-06 1.08391e-06
-2.98837e-05 -6.49246e-06 6.00233e-06
-1.6081e-05 -3.32583e-06 1.88657e-06
-3.50548e-05 -1.32383e-05 6.91769e-06
-2.92408e-05 -9.51952e-06 4.62139e-06
-3.99276e-05 -8.79348e-06 8.15049e-06
-1.49014e-05 -1.6385e-06 2.00916e-06
-2.20106e-05 -9.01493e-06 7.50061e-06
-1.41984e-05 -6.60293e-06 4.81035e-06
-1.61502e-05 -4.22675e-06 3.9018e-06
-6.40183e-05 -1.74152e-05 1.24136e-05
-2.97612e-05 -5.66099e-06 5.29296e-06
-2.1333e-05 -2.10678e-06 1.5613e-06
-2.89802e-05 -3.9094e-06 2.75298e-06
-1.22734e-05 -1.54217e-06 1.04259e-06
-2.21237e-05 -8.42198e-06 4.24833e-06
-1.40433e-05 -1.22969e-06 4.02421e-07
-4.22961e-05 -1.55103e-05 1.08913e-05
0.00183758 -0.000109789 0.000268165
-6.06933e-05 -1.73901e-05 9.74417e-06
-4.39556e-05 -1.34532e-05 1.16868e-05
-5.38748e-05 -1.70274e-05 1.39563e-05
0.00144598 0.000128974 -0.00058434
-8.08421e-06 -1.13961e-06 6.72469e-07
-3.46931e-05 -6.26573e-06 2.94627e-06
-6.06697e-05 -1.34932e-05 6.68926e-06
-3.82873e-05 -9.66892e-06 4.87359e-06
-2.55872e-05 -8.0516e-06 4.09752e-06
-5.67065e-05 -1.20979e-05 7.01891e-06
-1.85222e-05 -6.10937e-06 3.42268e-06
-2.51366e-05 -9.20348e-06 4.57449e-06
-1.58291e-05 -1.5808e-06 1.35071e-06
-1.98832e-05 -2.7433e-06 3.05007e-06
-1.23141e-05 -1.08791e-06 5.18181e-07
-1.53804e-05 -1.37649e-06 6.20475e-07
-3.18973e-05 -1.14037e-05 9.1495e-06
-3.21656e-05 -5.97489e-06 5.11686e-06
-3.51762e-05 -1.14238e-05 7.98704e-06
-2.26356e-05 -6.15635e-06 5.47329e-06
-2.56203e-05 -1.24745e-05 8.22645e-06
0.00137379 2.13491e-05 -8.30196e-08
-7.65569e-06 -4.41134e-07 4.63937e-07
0.0013985 -0.00093248 -0.00024955
-1.06133e-05 -2.72105e-06 2.5497e-06
-1.65753e-05 -4.78168e-06 3.45969e-06
-6.21509e-05 -9.71146e-06 8.50655e-06
-2.50266e-05 -6.68366e-06 5.84818e-06
-3.7282e-05 -5.23552e-06 3.81104e-06
-3.09282e-05 -4.28509e-06 2.4591e-06
-4.17683e-06 -2.50425e-07 2.02056e-07
-3.00175e-05 -8.04954e-06 7.31471e-06
-3.78814e-05 -1.14855e-05 6.81707e-06
-2.86821e-05 -1.12708e-05 6.24311e-06
-3.18088e-05 -5.10852e-06 2.92266e-06
-1.44481e-05 -9.00732e-07 8.14939e-07
-3.93341e-05 -1.0527e-05 5.76714e-06
-3.36155e-05 -2.56741e-06 1.97104e-06
-2.20539e-05 -4.50132e-06 4.42511e-06
-4.02612e-05 -1.40957e-05 1.17543e-05
-1.81492e-05 -5.45332e-06 2.94213e-06
-4.68393e-05 -1.44768e-05 9.40143e-06
-1.39361e-05 -4.67547e-06 2.94157e-06
-4.88419e-05 -8.0384e-06 6.12918e-06
-1.12253e-05 -1.91199e-06 1.18356e-06
0.00229937 0.000534185 0.000555424
-1.95837e-05 -3.44146e-06 2.08974e-06
-2.73843e-05 -3.69743e-06 1.81973e-06
-5.30145e-05 -5.70322e-06 3.96089e-06
-1.4347e-05 -3.78078e-06 1.98584e-06
-2.27925e-05 -2.52107e-06 1.35953e-06
-5.0217e-05 -5.36616e-06 3.6739e-06
0.00198764 -0.00144921 7.34857e-05
0.00276479 0.000958935 -0.00152386
-1.73137e-05 -3.17404e-06 3.473e-06
-5.90704e-05 -1.04629e-05 7.46985e-06
-1.79822e-05 -2.47031e-06 2.05785e-06
-3.35098e-05 -1.15711e-05 7.53298e-06
-4.87264e-05 -5.67111e-06 3.81079e-06
-3.23098e-05 -5.47119e-06 3.41371e-06
-3.48328e-05 -1.36783e-05 1.05266e-05
0.00076379 0.000212657 -0.00019303
-2.47209e-05 -1.03042e-05 8.47218e-06
-5.28219e-06 -5.82842e-07 5.41706e-07
0.000926179 0.000134803 -0.000529352
-7.63955e-06 -2.2041e-06 1.18591e-06
0.00179178 -0.0014723 0.000226919
-2.96217e-05 -1.35395e-05 1.01852e-05
-1.73367e-05 -7.76114e-06 6.29069e-06
0.00112149 -0.000480696 -0.000134449
-2.2379e-05 -3.47373e-06 3.45519e-06
0.000918614 0.000789831 7.00932e-06
-1.29428e-05 -3.10739e-06 2.72904e-06
-9.1329e-06 -4.60414e-06 2.36469e-06
-1.56784e-05 -2.92447e-06 3.14897e-06
-4.2367e-05 -1.19939e-05 8.61986e-06
-8.44414e-06 -1.19602e-06 1.14924e-06
0.00111379 6.24083e-05 0.000370199
-5.42197e-05 -5.50874e-06 3.55345e-06
-9.11321e-06 -1.25577e-06 5.56892e-07
-1.38017e-05 -3.17467e-06 2.09592e-06
0.000857613 -0.000116524 0.000561722
-1.82234e-05 -9.55992e-06 7.0189e-06
-2.28037e-05 -1.15059e-05 8.73404e-06
-1.37963e-05 -3.21096e-06 2.52128e-06
-1.0016e-05 -3.94728e-06 3.30285e-06
-5.21856e-06 -3.07648e-07 1.64719e-07
0.0010893 0.000243975 0.000479363
0.00116335 -0.000659561 -0.00016886
0.0012055 -0.000377253 -0.000259495
-1.87341e-05 -8.95229e-06 7.29376e-06
-7.189e-06 -3.91769e-06 2.41538e-06
-1.2049e-05 -3.28166e-06 1.81216e-06
-1.28015e-05 -4.46269e-06 2.17534e-06
0.000794758 0.000118487 -5.07796e-05
0.000583227 0.000277951 -0.000580389
-4.73446e-06 -2.7856e-07 6.16307e-08
-7.08928e-06 -4.33743e-07 2.23361e-07
-2.38134e-05 -1.02608e-05 5.05231e-06
-5.652e-06 -4.61405e-07 2.74779e-07
0.000507235 -0.000551598 -0.000272684
-2.7291e-05 -1.15965e-05 5.85328e-06
-4.96802e-06 -2.27862e-06 1.79846e-06