# vtk DataFile Version 4.2
vtk output
ASCII
DATASET UNSTRUCTURED_GRID

POINTS 343 double
0.00161182 0.00421625 -2.06295e-05
0.00311728 0.00502399 0.00213531
0 0.00419538 0.00112517
0.00277483 0.00199111 0.00190662
0.00744706 0.00251095 0.00493971
0.00744375 0.0039319 0.00630423
0.0109755 0.00492846 0.00486384
0.00896191 0.0049743 0.00358167
0.00984628 0.00342647 0.00679094
0.00718022 0.00509032 0.0049103
0.00601962 0.00120193 0.00992137
0.00760588 0.00218648 0.00780768
0.00603937 7.75835e-05 0.00824109
0.00289037 0.00204013 0.00799676
0.00616733 0.00261714 0.00991911
0.0100055 0.00658382 0.0068214
0.00922705 0.00630896 0.00506884
0.00324952 0.00222766 0.00510491
0 0.00143586 0.00417514
0.00228987 0.00349617 0.00400774
0.0098528 0.00333268 0.00304176
0.0111649 0.00237328 0.00492651
0 0.00270918 0.00154168
0.00599763 0.00151349 -7.15012e-05
0.00721893 0.00228936 0.00210945
0.00570545 0.00360504 0.00153319
0.00193522 2.43943e-05 0.00403557
0.00603669 7.82046e-05 0.0016139
0.00377356 0.00700227 -4.59446e-05
0.00277837 0.0080895 0.00190893
0.00587867 0.00632742 0.00157279
0.0115068 0.00814207 0.0078513
0.0114656 0.00497589 0.00787689
0.0120689 0.00624754 0.00579759
0.0143718 0.00901766 0.00401897
0.0108975 0.00778459 0.0048293
0.0123153 0.0101485 0.00401662
0.0114773 0.00812862 0.00187819
0.00508576 0.00310479 0.0068958
0.00638291 0.00374811 0.00824214
0.0056057 0.00167837 0.0058989
0.00718961 0.00776446 0.0075854
0.00285102 0.0080454 0.00795352
0.00405229 0.0100501 0.00707556
0.00562203 0.00847407 0.00588666
0 0.00695361 0.00262895
0.00236188 0.00627044 0.00405762
0 0.0040177 0.00850214
0.00332186 0.00502913 0.00761952
0.0020555 0.0042008 0.00997389
0.0103148 0.00725776 0.00986503
0.00879729 0.00609023 0.00830501
0.00294181 0.00798032 0.0047041
0.00436926 0.0070013 0.00641284
0.00227625 0.0061083 0.0058969
0.0143654 0.00598369 0.00812892
0 0.00718191 0.00711644
0.00227394 0.00580395 -2.88522e-05
0 0.00577432 0.00158701
0.0143673 0.00735453 0.00693205
0.00411972 0.00340352 0.0099457
0.0143644 0.001622 0.00400165
0.0115913 0.00211034 0.00184101
0.0120856 0.00367364 0.00385126
0.00536729 0.00172265 0.00406077
0.00216039 0.0100277 0.00578717
0.00404811 5.23541e-05 0.00707722
0.00879268 0.00429229 0.00826355
0.0143678 0.0074487 0.00402178
0.0123058 0.000155999 0.00401808
0.00481342 0.00293596 -5.77959e-05
0.00388288 0.00159098 0.00994903
0.00406371 5.2802e-05 0.00278083
0.00689862 0.00528724 0.00746645
0.00454352 0.00320748 0.00310952
0 0.00849157 0.00581511
0.00700449 0.00376601 0.00369897
0.00220924 0.00273779 -2.7948e-05
0.00832968 0.00842707 0.0098904
0.00859203 0.0101041 0.00839528
0.00604514 0.0100741 0.00823994
0.00576539 0.00857461 0.00992366
0.0143691 0.00865982 0.00563408
0.00452072 0.00689437 0.00309269
0 0.00748929 0.00137438
0.0019686 0.007515 -2.51504e-05
0 0.00287343 0.00335182
0 0.00580816 0.00831736
0 0.00429792 0.00253898
0.00364383 0.00434514 -4.43478e-05
0.00205504 0.00584565 0.0099738
0.00743925 0.00656915 0.00630638
0.00517426 0.00657782 0.00816741
0.00998498 0.00275352 0.00986959
0.01153 0.00210451 0.00788837
0.0100191 0.000128142 0.00296027
0.00865191 0.00177544 0.00350667
0.0143652 0.00305574 0.0031799
0 0.00140616 0.00256446
0.00915964 0.00834029 0.00630557
0.00836514 0.00154359 -9.86253e-05
0.00867848 0.00366267 0.00149878
0.0045273 0.0100558 0.00576687
0.0123058 0.0101486 0.00567856
0.00368048 0.00145399 -4.46589e-05
0.00858998 0.00011066 0.00139066
0.00902935 0.00839905 0.0035055
0.012297 0.000155913 0.0056799
0.00891688 0.00178701 0.00625358
0.00201243 0.0025896 0.00997433
0.0102372 0.00730825 -0.000121228
0.00742683 0.00778286 0.00207721
0.00854497 0.00620078 0.00149857
0 0.00686719 0.00578184
0.0143677 0.00159298 0.00239557
0.00254424 0.003643 0.00637552
0.0143736 0.00865485 0.0024527
0.0120929 0.00633826 0.00398502
0.00859849 0.0101048 0.00138888
0.010014 0.000127844 0.0068011
0.014363 0.00162117 0.00563956
0.0120683 0.00372471 0.00590978
0.00215961 2.71984e-05 0.00578798
0 0.0013659 0.00748679
0.00195993 2.47385e-05 0.00750452
0.0143664 0.00704121 0.00560026
0.0083647 0.00859519 -0.000100078
0 0.0075208 0.00859127
0.00195537 0.0075115 0.00997511
0.00607728 0.00828151 0.00355109
0.0123537 0.0101477 0.00735416
0.0143709 0.00879783 0.00733988
0.0082907 0.0016927 0.0098916
0.0104297 0.00431836 0.00986346
0 0.0057735 0.00666667
0.00196109 0.0100251 0.0075036
0 0.00863025 0.00752641
0.0123473 0.000158023 0.00235928
0.0143697 0.00712869 0.0024585
0.0121645 0.0064916 0.00201765
0.0122312 0.00597421 0.00984101
0.0107604 0.00151114 0.00985999
0.0123446 0.000157588 0.00735605
0.0143642 0.00155159 0.00730187
0 0.00143551 0.00581971
0.0085833 0.000110008 0.00839631
0.0060494 7.8112e-05 0.0033247
0.0114097 0.00485076 0.00189834
0.014367 0.00447753 0.00237011
0.00607051 0.0100743 0.00658883
0.00406683 0.0100499 0.0027794
0.00188042 2.39624e-05 0.00239429
0 0.00727418 0.00419576
0.0143648 0.00594958 0.00648298
0.0100281 0.0101215 0.00295828
0.0107908 0.00876683 0.0098587
0 0.00574334 0.00336387
0 0.0043297 0.00416652
0.00986933 0.00590613 0.00987087
0.0143625 0.00320386 0.00673285
0.00606408 7.81706e-05 0.00659051
0.00355261 0.0100439 0.00856552
0.0107657 0.00150454 -0.000125893
0.00829313 0.00676938 0.00989108
0.0143695 0.00769233 0.00840115
0.0123759 0.00770288 0.00983854
0.00994326 0.00314928 -0.000116589
0.00483121 0.00580572 -5.81864e-05
0.0108302 0.00876284 -0.000127578
0.0108122 0.0101306 0.00125739
0.00831487 0.00697099 -9.90474e-05
0.010028 0.00649579 0.00291085
0.0108034 0.000139341 0.00125854
0.00413576 0.0050508 0.00994566
0.00621504 0.00591125 0.00991812
0.00621357 0.00424446 0.00991832
0.0108065 0.0101292 0.0084768
0.0035488 4.55938e-05 0.00856679
0.0143669 0.0059203 0.00319198
0 0.00302218 0.00691532
0.0143641 0.00419797 0.00831249
0.0122292 0.00417224 -0.000141957
0.0143697 0.00289202 0.00137781
0 0.00244495 0.00857025
0.00350595 0.00861395 0.0099539
0.0107973 0.000138514 0.00847821
0.0121983 0.00277729 0.00984135
0.0127209 0.00435261 0.00983399
0.00814927 0.0100991 0.00573015
0.00745139 0.00767631 0.0049387
0.00811084 0.0100985 0.00411323
0.0100227 0.0101213 0.00679966
0.00433493 0.00697026 0.00994293
0.00598651 0.00440691 -7.12801e-05
0.00406697 5.23747e-05 0.00435372
0.00452266 5.85238e-05 0.00576904
0.0143715 0.00437574 0.000962364
0.00522556 0.00840324 0.00152317
0.0143646 0.00450868 0.00399196
0.00958777 0.0058932 -0.000113579
0.0123564 0.0101487 0.00235782
0 0.00848692 0.00262374
0.00193571 0.0100251 0.00403474
0 0.00885053 0.00419359
0.00602841 0.00892556 -7.27944e-05
0.00604245 0.0100739 0.00161255
0.00718299 0.00488312 0.00229085
0.0103825 0.00465259 -0.000121817
0.00810245 0.000104029 0.00411575
0.00814131 0.000104567 0.00573212
0.00188055 0.0100241 0.00239332
0.0123262 0.0026026 -0.000143393
0.0143631 0.00470071 0.0070351
0.01023 0.010124 0.00487227
0.00824702 0.00346783 0.00989179
0.00352637 4.60945e-05 0.00131254
0.0143649 0.0026285 0.0083803
0.00343464 0.00483513 0.00495628
0.00838616 0.00443688 -9.89001e-05
0.0119654 0.00595596 -0.00013899
0.0078732 0.0100958 0.00711976
0.0143628 0.004509 0.00565347
0.00776729 0.0100946 0.00267904
0.0102213 0.000130408 0.00487391
0.0040702 0.0100502 0.00435164
0 0.00452174 0.00721958
0.0064909 0.00730067 0.00991435
0.00786526 0.000101039 0.00712086
0.00517249 0.00514018 0.0035308
0.00610718 0.0100744 0.00493017
0.00610061 7.89031e-05 0.00493271
0.00526826 0.00528377 0.00610819
0 0.005744 0.00499998
0 0.00433013 0.00583333
0.00718749 0.00583543 -8.54714e-05
0.00716223 0.00642964 0.00346432
0.00775919 9.98174e-05 0.00268097
0.014365 0.00591964 0.00482215
0.00529781 0.00647562 0.00477679
0.00824903 0.00510281 0.0098917
0.0143714 0.00595039 0.0014224
0 0.00666667 0
0.0123615 0.0076714 -0.000143682
0.00478621 6.26342e-05 -5.73216e-05
0 0.01 0.00666667
0.00718349 0.0100866 0.00990568
0 0.00288419 0.00499914
0.0143744 0.00766216 0.00120995
0.014378 0.00684058 -0.00016194
0 0.005 0.01
0.00718425 0.00297677 -8.50475e-05
0 0.005 0
0.0143706 0.000190281 0.0031624
0.0143783 0.0101629 0.00648208
0.00603024 0.00735036 -7.24271e-05
0.0143633 0.00306669 0.00482206
0.00718479 9.37793e-05 -8.54634e-05
0 0 0.00666667
0.00545209 0.00368626 0.0051576
0.00717655 9.20559e-05 0.00990681
0.014368 0.000189727 0.00648423
0 0 0.005
0.0126352 0.0101508 0.00107168
0.0143793 0.00894767 0.00105628
0.0143685 0.000189699 0.00482277
0.0143766 0.00517869 -0.000160788
0.00174789 0.00124251 -2.21185e-05
0 0.00122008 0.00122008
0 0.00333333 0.01
0 0.00666667 0.01
0.012635 0.00893171 -0.000146797
0.0143805 0.0101625 0.00315992
0.00605545 0.0100738 0.00332246
0.014373 0.00684003 0.00980495
0 0.00333333 0
0 0.00122008 0.00877992
0.00174582 2.20487e-05 0.00875828
0.00174565 0.00124207 0.00997772
0.0126285 0.0101494 0.00861559
0.00174667 0.008802 0.00997762
0 0.00877992 0.00877992
0.0143737 0.0089463 0.0085895
0.00959347 0.010116 -0.000114994
0.0143723 0.0014082 0.0010563
0.0017472 0.0100221 0.00875765
0.0126271 0.00892955 0.00983437
0.0143714 0.00517721 0.00980554
0 0 0.00333333
0.00958415 0.000124426 -0.000113054
0.0126254 0.000163378 0.00107206
0.00173551 2.22813e-05 0.00118984
0 0.00877992 0.00122008
0.00174729 0.00880267 -2.23831e-05
0.00173543 0.0100221 0.00118892
0.0143668 0.00140668 0.00859022
0.0126203 0.00138191 0.00983543
0.00957476 0.00012282 0.00987571
0.0126282 0.00138376 -0.000146366
0.0126193 0.000162166 0.00861712
0.0143762 0.00351602 -0.000160506
0.00478461 0.0100579 0.0099369
0.00352859 0.0100435 0.00131143
0.009584 0.0101147 0.00987472
0.0143698 0.00351396 0.00980536
0 0.01 0.005
0.0037667 0.0085348 -4.61319e-05
0.0143786 0.0101626 0.00482235
0 0.01 0.00333333
0 0.00166667 0
0.0143744 0.000190148 0.00150124
0 0.00166667 0.01
0 0.00833333 0
0.0143825 0.00850347 -0.000162553
0.0143694 0.000189337 0.00814611
0.0143846 0.0101644 0.00150107
0.0143796 0.0101631 0.00814446
0.00238858 0.0100292 0.00996908
0 0.01 0.00833333
0.011996 0.0101431 -0.000140845
0.0119861 0.000156217 -0.000140029
0.0119779 0.000154321 0.00984461
0.0119872 0.0101413 0.00984339
0 0 0.00833333
0.0143767 0.0085004 0.0098059
0.00238937 3.14472e-05 -2.96476e-05
0 0 0.00166667
0.00479008 0.0100589 -5.84451e-05
0.0143705 0.00185275 0.00980661
0.0143774 0.00185485 -0.000161337
0.00238589 3.05091e-05 0.00996968
0.00238987 0.0100299 -3.02212e-05
0 0.01 0.00166667
0.0143825 0.0101647 0.00980732
0 0 0.01
0.0143897 0.0101654 -0.000163825
0.0143728 0.000188157 0.0098092
0 0.01 0.01
0.0143802 0.000189872 -0.000162917
0 0.01 0
0 0 0
0.00719166 0.0100875 -8.71216e-05
0.0047798 6.14126e-05 0.0099376
0 0.00833333 0.01

CELLS 343 686
1 0
1 1
1 2
1 3
1 4
1 5
1 6
1 7
1 8
1 9
1 10
1 11
1 12
1 13
1 14
1 15
1 16
1 17
1 18
1 19
1 20
1 21
1 22
1 23
1 24
1 25
1 26
1 27
1 28
1 29
1 30
1 31
1 32
1 33
1 34
1 35
1 36
1 37
1 38
1 39
1 40
1 41
1 42
1 43
1 44
1 45
1 46
1 47
1 48
1 49
1 50
1 51
1 52
1 53
1 54
1 55
1 56
1 57
1 58
1 59
1 60
1 61
1 62
1 63
1 64
1 65
1 66
1 67
1 68
1 69
1 70
1 71
1 72
1 73
1 74
1 75
1 76
1 77
1 78
1 79
1 80
1 81
1 82
1 83
1 84
1 85
1 86
1 87
1 88
1 89
1 90
1 91
1 92
1 93
1 94
1 95
1 96
1 97
1 98
1 99
1 100
1 101
1 102
1 103
1 104
1 105
1 106
1 107
1 108
1 109
1 110
1 111
1 112
1 113
1 114
1 115
1 116
1 117
1 118
1 119
1 120
1 121
1 122
1 123
1 124
1 125
1 126
1 127
1 128
1 129
1 130
1 131
1 132
1 133
1 134
1 135
1 136
1 137
1 138
1 139
1 140
1 141
1 142
1 143
1 144
1 145
1 146
1 147
1 148
1 149
1 150
1 151
1 152
1 153
1 154
1 155
1 156
1 157
1 158
1 159
1 160
1 161
1 162
1 163
1 164
1 165
1 166
1 167
1 168
1 169
1 170
1 171
1 172
1 173
1 174
1 175
1 176
1 177
1 178
1 179
1 180
1 181
1 182
1 183
1 184
1 185
1 186
1 187
1 188
1 189
1 190
1 191
1 192
1 193
1 194
1 195
1 196
1 197
1 198
1 199
1 200
1 201
1 202
1 203
1 204
1 205
1 206
1 207
1 208
1 209
1 210
1 211
1 212
1 213
1 214
1 215
1 216
1 217
1 218
1 219
1 220
1 221
1 222
1 223
1 224
1 225
1 226
1 227
1 228
1 229
1 230
1 231
1 232
1 233
1 234
1 235
1 236
1 237
1 238
1 239
1 240
1 241
1 242
1 243
1 244
1 245
1 246
1 247
1 248
1 249
1 250
1 251
1 252
1 253
1 254
1 255
1 256
1 257
1 258
1 259
1 260
1 261
1 262
1 263
1 264
1 265
1 266
1 267
1 268
1 269
1 270
1 271
1 272
1 273
1 274
1 275
1 276
1 277
1 278
1 279
1 280
1 281
1 282
1 283
1 284
1 285
1 286
1 287
1 288
1 289
1 290
1 291
1 292
1 293
1 294
1 295
1 296
1 297
1 298
1 299
1 300
1 301
1 302
1 303
1 304
1 305
1 306
1 307
1 308
1 309
1 310
1 311
1 312
1 313
1 314
1 315
1 316
1 317
1 318
1 319
1 320
1 321
1 322
1 323
1 324
1 325
1 326
1 327
1 328
1 329
1 330
1 331
1 332
1 333
1 334
1 335
1 336
1 337
1 338
1 339
1 340
1 341
1 342

CELL_TYPES 343
1
1
1
1
1
1
1
1
1
1
1
1
1
1
1
1
1
1
1
1
1
1
1
1
1
1
1
1
1
1
1
1
1
1
1
1
1
1
1
1
1
1
1
1
1
1
1
1
1
1
1
1
1
1
1
1
1
1
1
1
1
1
1
1
1
1
1
1
1
1
1
1
1
1
1
1
1
1
1
1
1
1
1
1
1
1
1
1
1
1
1
1
1
1
1
1
1
1
1
1
1
1
1
1
1
1
1
1
1
1
1
1
1
1
1
1
1
1
1
1
1
1
1
1
1
1
1
1
1
1
1
1
1
1
1
1
1
1
1
1
1
1
1
1
1
1
1
1
1
1
1
1
1
1
1
1
1
1
1
1
1
1
1
1
1
1
1
1
1
1
1
1
1
1
1
1
1
1
1
1
1
1
1
1
1
1
1
1
1
1
1
1
1
1
1
1
1
1
1
1
1
1
1
1
1
1
1
1
1
1
1
1
1
1
1
1
1
1
1
1
1
1
1
1
1
1
1
1
1
1
1
1
1
1
1
1
1
1
1
1
1
1
1
1
1
1
1
1
1
1
1
1
1
1
1
1
1
1
1
1
1
1
1
1
1
1
1
1
1
1
1
1
1
1
1
1
1
1
1
1
1
1
1
1
1
1
1
1
1
1
1
1
1
1
1
1
1
1
1
1
1
1
1
1
1
1
1
1
1
1
1
1
1
1
1
1
1
1
1
1
1
1
1
1
1
1
1
1
1
1
1
1
1
1
1
1
1
1
1
1
1
1
1

POINT_DATA 343
FIELD FieldData 8

NodeID_(#) 1 343 int
0
1
2
3
4
5
6
7
8
9
10
11
12
13
14
15
16
17
18
19
20
21
22
23
24
25
26
27
28
29
30
31
32
33
34
35
36
37
38
39
40
41
42
43
44
45
46
47
48
49
50
51
52
53
54
55
56
57
58
59
60
61
62
63
64
65
66
67
68
69
70
71
72
73
74
75
76
77
78
79
80
81
82
83
84
85
86
87
88
89
90
91
92
93
94
95
96
97
98
99
100
101
102
103
104
105
106
107
108
109
110
111
112
113
114
115
116
117
118
119
120
121
122
123
124
125
126
127
128
129
130
131
132
133
134
135
136
137
138
139
140
141
142
143
144
145
146
147
148
149
150
151
152
153
154
155
156
157
158
159
160
161
162
163
164
165
166
167
168
169
170
171
172
173
174
175
176
177
178
179
180
181
182
183
184
185
186
187
188
189
190
191
192
193
194
195
196
197
198
199
200
201
202
203
204
205
206
207
208
209
210
211
212
213
214
215
216
217
218
219
220
221
222
223
224
225
226
227
228
229
230
231
232
233
234
235
236
237
238
239
240
241
242
243
244
245
246
247
248
249
250
251
252
253
254
255
256
257
258
259
260
261
262
263
264
265
266
267
268
269
270
271
272
273
274
275
276
277
278
279
280
281
282
283
284
285
286
287
288
289
290
291
292
293
294
295
296
297
298
299
300
301
302
303
304
305
306
307
308
309
310
311
312
313
314
315
316
317
318
319
320
321
322
323
324
325
326
327
328
329
330
331
332
333
334
335
336
337
338
339
340
341
342

Component_(#) 1 343 int
0
0
0
0
0
0
0
0
0
0
0
0
0
0
0
0
0
0
0
0
0
0
0
0
0
0
0
0
0
0
0
0
0
0
0
0
0
0
0
0
0
0
0
0
0
0
0
0
0
0
0
0
0
0
0
0
0
0
0
0
0
0
0
0
0
0
0
0
0
0
0
0
0
0
0
0
0
0
0
0
0
0
0
0
0
0
0
0
0
0
0
0
0
0
0
0
0
0
0
0
0
0
0
0
0
0
0
0
0
0
0
0
0
0
0
0
0
0
0
0
0
0
0
0
0
0
0
0
0
0
0
0
0
0
0
0
0
0
0
0
0
0
0
0
0
0
0
0
0
0
0
0
0
0
0
0
0
0
0
0
0
0
0
0
0
0
0
0
0
0
0
0
0
0
0
0
0
0
0
0
0
0
0
0
0
0
0
0
0
0
0
0
0
0
0
0
0
0
0
0
0
0
0
0
0
0
0
0
0
0
0
0
0
0
0
0
0
0
0
0
0
0
0
0
0
0
0
0
0
0
0
0
0
0
0
0
0
0
0
0
0
0
0
0
0
0
0
0
0
0
0
0
0
0
0
0
0
0
0
0
0
0
0
0
0
0
0
0
0
0
0
0
0
0
0
0
0
0
0
0
0
0
0
0
0
0
0
0
0
0
0
0
0
0
0
0
0
0
0
0
0
0
0
0
0
0
0
0
0
0
0
0
0
0
0
0
0
0
0
0
0
0
0
0
0
0
0
0
0
0
0
0
0
0
0
0
0
0
0
0
0
0
0

NodalMass_(kg) 1 343 double
3.15563e-06
1.41304e-05
2.20912e-06
1.71484e-05
8.42e-06
9.09306e-06
1.01179e-05
7.52198e-06
6.81096e-06
5.58223e-06
3.10888e-06
1.07575e-05
4.87011e-06
1.64955e-05
3.0246e-06
8.05984e-06
6.703e-06
1.0877e-05
4.18978e-06
8.16106e-06
6.14143e-06
1.17902e-05
2.23114e-06
4.25176e-06
1.09915e-05
7.41467e-06
4.21871e-06
3.92484e-06
3.08766e-06
1.31268e-05
7.72627e-06
1.65404e-05
1.19037e-05
7.97564e-06
3.81683e-06
1.11001e-05
3.81317e-06
1.39137e-05
6.37414e-06
8.00975e-06
7.6712e-06
1.21135e-05
1.6399e-05
2.78633e-06
8.93599e-06
2.58087e-06
7.57362e-06
4.23241e-06
1.31286e-05
3.80168e-06
2.7746e-06
7.16776e-06
1.21307e-05
5.11765e-06
8.19728e-06
4.58094e-06
2.79503e-06
3.26126e-06
4.12443e-06
2.11915e-06
3.35177e-06
3.61669e-06
1.56838e-05
7.33679e-06
8.24695e-06
5.00369e-06
2.82625e-06
7.20276e-06
3.26815e-06
4.18751e-06
2.02785e-06
2.42152e-06
3.11835e-06
5.97459e-06
5.87101e-06
4.09374e-06
5.45463e-06
2.28825e-06
4.49759e-06
4.38192e-06
4.50892e-06
4.39234e-06
4.27273e-06
5.32031e-06
1.53201e-06
2.38869e-06
2.02885e-06
4.38798e-06
3.17972e-06
3.14298e-06
4.61567e-06
5.87645e-06
8.18088e-06
2.48341e-06
1.53815e-05
3.49683e-06
7.35227e-06
2.01314e-06
2.0408e-06
7.98183e-06
4.41293e-06
7.1389e-06
1.20123e-06
5.03343e-06
1.61257e-06
4.12601e-06
8.73748e-06
4.37849e-06
7.97173e-06
2.13557e-06
3.38137e-06
9.48623e-06
7.40262e-06
1.80226e-06
2.10222e-06
7.98889e-06
1.87983e-06
7.44814e-06
4.19782e-06
2.37156e-06
4.31705e-06
6.06441e-06
4.30905e-06
2.16843e-06
1.8986e-06
1.81294e-06
3.89762e-06
2.44299e-06
1.65628e-06
8.01374e-06
1.64513e-06
2.3931e-06
3.01363e-06
2.99431e-06
1.36541e-06
1.87293e-06
2.09622e-06
1.94762e-06
1.87618e-06
6.37913e-06
4.58628e-06
2.02767e-06
1.61999e-06
2.41284e-06
3.8865e-06
4.44973e-06
2.29839e-06
1.17349e-05
3.11811e-06
1.354e-06
3.45063e-06
1.81846e-06
2.9382e-06
1.37381e-06
2.41464e-06
2.10451e-06
2.63927e-06
2.14166e-06
1.7943e-06
3.19976e-06
1.36989e-06
2.43489e-06
2.08158e-06
1.3601e-06
2.17203e-06
1.89924e-06
3.16996e-06
2.6119e-06
2.37677e-06
1.60225e-06
1.90684e-06
5.49206e-06
1.87878e-06
3.14313e-06
2.97301e-06
1.18454e-06
1.89263e-06
2.04166e-06
2.73572e-06
2.42405e-06
3.23083e-06
3.19752e-06
3.2142e-06
1.94492e-06
1.61196e-06
1.86876e-06
3.22435e-06
2.1114e-06
2.96917e-06
6.15288e-06
2.3097e-06
2.39729e-06
2.38029e-06
2.64508e-06
1.66557e-06
1.82377e-06
2.06583e-06
5.73271e-06
2.08467e-06
2.18324e-06
2.43522e-06
3.1188e-06
3.17316e-06
2.05447e-06
1.9592e-06
3.05718e-06
6.44327e-06
2.08796e-06
2.72615e-06
2.15709e-06
1.86812e-06
2.0028e-06
2.10999e-06
2.88994e-06
2.3222e-06
2.3979e-06
1.97629e-06
6.4127e-06
2.16225e-06
3.29198e-06
2.10223e-06
2.66566e-06
1.94415e-06
2.91865e-06
2.58116e-06
2.11703e-06
2.09534e-06
1.91719e-06
7.06046e-06
2.25203e-06
2.06378e-06
6.28159e-06
2.12147e-06
2.90924e-06
2.12921e-06
6.4487e-06
1.41701e-06
2.0682e-06
6.58062e-06
2.52584e-06
2.39732e-06
7.42191e-07
2.22368e-06
7.06751e-07
7.00657e-07
8.93749e-07
2.53536e-06
2.26535e-06
1.33607e-06
7.84725e-07
2.32303e-06
6.06694e-07
6.68276e-07
6.84307e-07
2.51242e-06
2.31629e-06
7.8367e-07
6.80839e-07
6.22692e-06
6.7471e-07
6.65305e-07
7.01158e-07
1.8232e-06
1.90695e-06
6.86722e-07
7.04792e-07
1.86445e-06
2.28572e-06
6.8045e-07
7.16005e-07
1.82373e-06
6.01079e-07
2.02791e-06
7.4579e-07
5.74423e-07
1.80052e-06
1.454e-06
2.2702e-06
1.80636e-06
2.15356e-06
1.79089e-06
1.79456e-06
6.8231e-07
2.24737e-06
1.45239e-06
1.79556e-06
6.97875e-07
6.24265e-07
6.62717e-07
1.44627e-06
1.40138e-06
2.15258e-06
1.82851e-06
1.3994e-06
1.43932e-06
2.19226e-06
6.97732e-07
1.77726e-06
1.79162e-06
6.54258e-07
7.3397e-07
2.34895e-06
7.10392e-07
6.56982e-07
6.26314e-07
2.18926e-06
6.12493e-07
6.03901e-07
5.92831e-07
5.12031e-07
5.11667e-07
4.9467e-07
4.97016e-07
4.96269e-07
5.33079e-07
4.94191e-07
4.97855e-07
4.86862e-07
4.90626e-07
4.94649e-07
4.94954e-07
4.91922e-07
4.89615e-07
4.96354e-07
4.95189e-07
4.82188e-07
1.10854e-06
5.3299e-07
5.44763e-07
5.36655e-07
5.15417e-07
5.01772e-07
5.53774e-07
5.53774e-07
5.53774e-07
5.53774e-07
5.53774e-07
5.53774e-07
5.50785e-07
5.50785e-07
7.45291e-07
7.11668e-07
4.9897e-07

NodalForce_(N) 3 343 double
-1.41172e-07 1.90123e-08 -7.02154e-09
-1.01264e-06 2.84858e-07 -3.39682e-07
0.00034098 4.29271e-05 0.000579523
-3.85879e-07 3.26453e-07 -3.16913e-07
7.99186e-07 1.44e-06 -1.58759e-06
1.02156e-06 1.40235e-06 -1.82353e-06
-2.00513e-07 3.31013e-06 -4.33777e-06
-8.00425e-07 1.64379e-06 -2.1377e-06
1.29345e-06 1.92368e-06 -2.42976e-06
-1.06109e-07 7.59696e-07 -9.84045e-07
1.04172e-06 4.26049e-07 -4.97049e-07
2.93675e-06 2.03443e-06 -2.45915e-06
1.48353e-06 6.956e-07 -7.41687e-07
1.38262e-06 3.06549e-07 -4.10962e-07
8.84626e-07 3.73681e-07 -5.1181e-07
2.35385e-07 2.13881e-06 -2.9603e-06
-5.07213e-07 1.52399e-06 -2.03537e-06
3.72428e-07 2.75511e-07 -3.58971e-07
0.000762994 0.000652646 0.000291473
-5.65918e-08 6.31727e-08 -8.92066e-08
-3.81812e-07 1.7417e-06 -2.11683e-06
1.47204e-06 4.3315e-06 -5.23152e-06
0.00173796 -0.00042602 0.000343781
-5.06596e-07 5.72502e-07 -5.78103e-07
-5.76587e-07 1.90566e-06 -2.28079e-06
-8.95205e-07 6.95739e-07 -1.00736e-06
1.37283e-07 1.73065e-08 -5.62857e-08
4.99416e-08 5.14421e-07 -5.93117e-07
-6.29634e-07 9.05353e-08 -1.49567e-07
-1.35487e-06 1.25195e-07 -2.82764e-07
-1.61016e-06 5.86853e-07 -1.08681e-06
2.53612e-07 5.85228e-06 -8.04407e-06
2.36807e-06 4.23656e-06 -5.72725e-06
-2.38398e-07 3.07523e-06 -4.10358e-06
-1.24884e-06 1.9809e-06 -2.59539e-06
-2.06885e-06 3.53856e-06 -4.66905e-06
-1.47899e-06 1.52871e-06 -2.00342e-06
-5.91993e-06 4.86876e-06 -6.49705e-06
6.48396e-07 4.65161e-07 -5.79558e-07
1.49117e-06 8.93744e-07 -1.38566e-06
1.04099e-06 8.20817e-07 -7.71784e-07
1.32301e-07 1.74774e-06 -2.51911e-06
1.32219e-07 3.19071e-07 -3.57586e-07
-2.10372e-07 1.23599e-07 -1.42355e-07
-8.30199e-07 7.99609e-07 -9.37823e-07
0.00109 3.52513e-05 -0.000352907
-2.6389e-07 1.11865e-07 -1.19652e-07
0.000326076 0.000612204 -0.000499179
4.77685e-07 2.82319e-07 -4.42143e-07
2.07978e-07 3.83465e-08 -2.96106e-08
5.18755e-07 8.01106e-07 -1.13938e-06
9.88385e-07 1.48368e-06 -2.21733e-06
-6.13049e-07 1.36343e-07 -2.86097e-07
-8.92459e-08 1.97775e-07 -3.0182e-07
-1.15531e-08 8.89055e-08 -1.29123e-07
7.23071e-07 2.40656e-06 -3.19032e-06
0.000855508 -0.000251245 4.71297e-05
-2.95663e-07 3.9921e-08 -3.19295e-08
0.00193769 -0.000593751 0.000670354
-2.31291e-08 1.10062e-06 -1.47316e-06
6.17368e-07 1.63488e-07 -2.58258e-07
3.84993e-07 2.02907e-06 -2.46421e-06
-1.32265e-06 6.18136e-06 -7.38672e-06
-1.94218e-07 2.95602e-06 -3.73438e-06
5.40009e-07 8.23254e-07 -7.60425e-07
-2.28398e-07 1.23049e-08 -5.83953e-08
4.75616e-07 1.80122e-07 -1.52548e-07
1.62464e-06 1.55638e-06 -2.219e-06
-7.74613e-07 1.68826e-06 -2.22157e-06
7.95e-07 1.86889e-06 -2.21014e-06
-3.13789e-07 1.31849e-07 -1.73993e-07
5.31912e-07 1.33513e-07 -1.67635e-07
2.0748e-07 1.98273e-07 -1.67727e-07
6.44703e-07 7.19928e-07 -1.13674e-06
-1.24964e-07 3.15042e-07 -3.81781e-07
0.00141257 -0.000285999 -0.000502815
-1.57599e-07 7.45706e-07 -9.44466e-07
-1.21464e-07 1.80117e-08 -1.83999e-08
5.50769e-07 9.15212e-07 -1.28736e-06
-2.07246e-07 9.25946e-07 -1.35186e-06
-1.55142e-07 4.85777e-07 -7.2558e-07
3.9506e-07 4.78155e-07 -6.27846e-07
-7.83772e-07 2.21559e-06 -2.93754e-06
-5.71777e-07 2.24236e-07 -3.54733e-07
0.00122202 0.000319439 0.00024507
-2.14938e-07 -1.10723e-09 -6.98099e-09
0.00121457 -0.00017306 -0.000259668
0.00171931 -0.000258473 -0.000497999
0.00103366 0.000808475 -0.000559206
-4.79597e-07 1.07227e-07 -1.45949e-07
2.32309e-07 3.4164e-08 -3.82916e-08
-4.17314e-08 8.44422e-07 -1.18519e-06
6.01166e-07 4.67406e-07 -9.25621e-07
1.04603e-06 7.5263e-07 -9.63364e-07
5.55743e-06 6.05344e-06 -7.40737e-06
3.46443e-07 1.11564e-06 -1.2618e-06
3.52413e-07 1.77162e-06 -1.98861e-06
-7.84383e-08 1.09724e-06 -1.36804e-06
0.00179904 0.000825335 -3.16213e-05
-7.34374e-07 1.86863e-06 -2.42564e-06
-6.61545e-07 1.0392e-06 -1.16554e-06
-1.1525e-06 1.59316e-06 -2.06729e-06
-1.41254e-07 7.75613e-08 -8.72849e-08
-1.31415e-06 2.02603e-06 -2.66898e-06
-1.31633e-07 8.84838e-08 -8.38275e-08
1.92714e-08 1.01651e-06 -1.20136e-06
-2.4519e-06 1.98087e-06 -2.56077e-06
1.37245e-06 1.94941e-06 -2.31489e-06
1.82257e-06 2.00838e-06 -2.29217e-06
1.47395e-07 8.95554e-09 -1.79147e-08
-1.64437e-06 9.47046e-07 -1.30167e-06
-2.87705e-06 1.4345e-06 -2.00629e-06
-2.17378e-06 1.40433e-06 -2.07432e-06
0.000607914 0.000382881 -0.000499539
-2.33485e-08 1.18079e-06 -1.42446e-06
2.29131e-07 1.05302e-07 -1.64204e-07
-7.96132e-07 9.74978e-07 -1.27994e-06
-1.27702e-06 2.89247e-06 -3.78365e-06
-2.04749e-06 9.08123e-07 -1.20632e-06
8.70923e-07 7.70427e-07 -8.5729e-07
9.94437e-07 2.42091e-06 -2.95936e-06
7.74188e-07 2.43803e-06 -3.12821e-06
2.34257e-07 4.21281e-08 -5.6458e-08
0.0014418 0.00015797 0.000424656
1.24312e-07 2.49597e-08 -9.06448e-09
-1.69446e-07 9.37664e-07 -1.24478e-06
-1.95419e-06 7.55256e-07 -1.05913e-06
0.00166666 0.000452389 -0.000805581
6.14157e-08 1.91266e-08 -1.84063e-08
-1.57763e-06 8.14236e-07 -9.5387e-07
-2.22812e-07 6.69302e-07 -8.97311e-07
-1.50492e-07 1.23548e-06 -1.66647e-06
1.31092e-06 6.86675e-07 -8.51586e-07
1.05175e-06 9.10965e-07 -1.2516e-06
0.00124567 -0.000190362 0.000433052
-3.69058e-08 1.96103e-09 -1.63545e-08
0.00144508 -0.000315808 0.000424512
1.30851e-07 8.79839e-07 -1.03089e-06
-6.28197e-07 9.6555e-07 -1.27278e-06
-2.08929e-06 2.4907e-06 -3.27212e-06
1.28505e-06 1.82942e-06 -2.47268e-06
1.01919e-06 7.32225e-07 -8.89924e-07
7.10145e-07 7.3769e-07 -8.62255e-07
8.66805e-07 1.36173e-06 -1.66394e-06
0.00102971 0.000566985 -0.000776563
1.92234e-06 1.12565e-06 -1.28393e-06
2.30577e-07 3.20298e-07 -2.96873e-07
-2.76129e-06 4.18872e-06 -5.37447e-06
-5.70258e-07 1.66788e-06 -2.10019e-06
-1.64693e-07 1.52982e-07 -1.78801e-07
-6.69187e-07 1.57747e-07 -1.85625e-07
2.02866e-08 5.93842e-09 -1.23829e-08
0.00227537 0.000687863 -8.01188e-07
5.3128e-08 7.21405e-07 -9.46813e-07
-1.0246e-06 6.88415e-07 -8.73284e-07
2.36628e-07 6.89298e-07 -9.4021e-07
0.00150854 7.288e-05 -0.000676821
0.000945763 0.000840586 0.00181621
4.63823e-07 4.74366e-07 -6.92134e-07
7.08707e-07 1.73782e-06 -2.20906e-06
3.3233e-07 1.96928e-07 -1.74897e-07
-4.46208e-08 8.60855e-08 -1.2878e-07
-3.59838e-07 7.47813e-07 -8.69352e-07
2.63911e-07 2.5043e-07 -3.94777e-07
1.71221e-07 1.12748e-06 -1.50993e-06
3.46252e-07 7.71949e-07 -1.04716e-06
-7.9447e-07 9.26182e-07 -1.16076e-06
-6.09774e-07 1.26016e-07 -2.37314e-07
-1.3768e-06 7.49825e-07 -1.01953e-06
-8.90887e-07 5.21251e-07 -6.89823e-07
-7.95648e-07 3.52053e-07 -5.14183e-07
-1.33378e-06 1.47629e-06 -1.98493e-06
-2.10476e-08 6.88532e-07 -8.01816e-07
4.58246e-07 1.44027e-07 -2.57755e-07
5.91712e-07 2.85366e-07 -5.28666e-07
2.89911e-07 1.25914e-07 -2.13046e-07
-8.96145e-08 6.15778e-07 -8.52014e-07
3.80002e-07 1.22573e-07 -9.12716e-08
-5.71292e-07 1.44101e-06 -1.85124e-06
0.00183877 -9.97811e-05 0.000291743
9.03444e-07 1.72592e-06 -2.24101e-06
-1.09944e-06 1.31929e-06 -1.65142e-06
-5.22224e-07 1.76726e-06 -2.15526e-06
0.00139978 -0.000213315 -0.000288659
1.03592e-07 7.20324e-08 -9.75594e-08
9.17866e-07 7.02074e-07 -8.06891e-07
1.50748e-06 1.36618e-06 -1.72228e-06
8.02427e-07 9.24685e-07 -1.20749e-06
-5.74969e-07 5.85117e-07 -7.06991e-07
-7.86514e-07 9.35279e-07 -1.18308e-06
-6.85956e-07 4.52962e-07 -5.34582e-07
-3.7323e-07 6.79358e-07 -8.76696e-07
2.70511e-07 7.82056e-08 -2.14223e-07
-6.19735e-07 2.5208e-07 -3.9516e-07
1.64468e-07 1.18074e-07 -9.21587e-08
2.77636e-07 1.47805e-07 -1.22269e-07
-5.76996e-07 1.10823e-06 -1.38375e-06
-1.43661e-06 4.43158e-07 -6.66327e-07
-1.33941e-07 1.11128e-06 -1.42377e-06
-8.63285e-07 5.419e-07 -7.50947e-07
-1.24557e-06 9.83582e-07 -1.2918e-06
0.00157646 -0.000361728 -0.000118939
-1.67642e-07 1.73291e-08 -3.13492e-08
0.00135121 -0.000620973 6.44758e-05
-7.67368e-07 2.13045e-07 -3.02982e-07
-1.08825e-06 3.58735e-07 -4.51939e-07
-9.95066e-07 8.48004e-07 -1.24917e-06
-7.11793e-07 6.33305e-07 -8.21799e-07
4.21102e-07 6.25243e-07 -6.36509e-07
5.58193e-07 4.98716e-07 -5.01234e-07
-1.40453e-07 1.14304e-08 -7.12799e-09
-5.0755e-07 8.64515e-07 -1.04401e-06
3.26933e-07 1.12059e-06 -1.45986e-06
-8.53826e-07 8.48877e-07 -1.08647e-06
8.02467e-07 4.72589e-07 -6.57525e-07
2.93991e-08 1.07008e-07 -1.07586e-07
7.44679e-07 1.09556e-06 -1.36953e-06
-7.35019e-08 1.6965e-07 -2.57134e-07
-6.20149e-07 4.35114e-07 -6.04091e-07
-1.4657e-06 1.2471e-06 -1.65072e-06
-2.41156e-07 3.8321e-07 -5.00237e-07
1.6661e-07 1.42026e-06 -1.83469e-06
-7.30771e-07 3.52747e-07 -4.27362e-07
6.82334e-07 9.62919e-07 -1.09627e-06
-3.90362e-07 1.16595e-07 -1.26871e-07
0.00162695 0.000281042 0.000761019
3.09476e-07 2.31288e-07 -3.90101e-07
6.33837e-07 4.18066e-07 -4.35787e-07
-4.67613e-07 4.44182e-07 -5.91164e-07
-4.60346e-07 2.61659e-07 -2.83904e-07
3.56533e-07 2.98389e-07 -2.52578e-07
1.03467e-07 4.02978e-07 -5.82743e-07
0.00205102 -0.00143175 9.35757e-05
0.00184228 0.000702653 -0.00116472
-6.90944e-07 2.63097e-07 -4.52897e-07
-1.00895e-06 8.5136e-07 -1.1601e-06
1.04563e-07 3.00133e-07 -3.21e-07
-1.76405e-07 1.08797e-06 -1.41677e-06
-4.11664e-07 4.13929e-07 -5.61282e-07
6.78541e-07 4.61703e-07 -7.28629e-07
-8.16023e-07 1.26038e-06 -1.60925e-06
0.00086462 0.000726441 4.2206e-05
-1.2208e-06 8.86015e-07 -1.17674e-06
-3.89967e-08 7.82168e-08 -7.59603e-08
0.000908374 -3.45389e-05 -0.000973543
4.95026e-08 1.46288e-07 -2.07035e-07
0.00210998 -0.00113065 0.000142016
-1.0349e-06 1.16135e-06 -1.52325e-06
-6.76633e-07 6.94513e-07 -8.99236e-07
0.00077232 -0.0010787 0.00013506
-4.57179e-07 3.64947e-07 -4.75138e-07
0.000758812 0.00120068 -5.61516e-05
8.59353e-08 3.8115e-07 -4.54906e-07
-1.39178e-07 3.54371e-07 -4.72947e-07
-8.38505e-07 2.25136e-07 -3.8515e-07
1.98644e-07 1.25732e-06 -1.58832e-06
-6.29074e-08 1.56027e-07 -1.67015e-07
0.000652894 -0.000174088 0.000796915
2.09033e-07 4.80074e-07 -5.77953e-07
2.96835e-07 1.30877e-07 -1.48897e-07
2.50816e-07 3.78565e-07 -4.55095e-07
0.000404064 -0.000456302 0.00103361
-1.10364e-06 7.60703e-07 -1.0087e-06
-1.03486e-06 9.85015e-07 -1.28776e-06
1.73741e-07 3.89852e-07 -4.70084e-07
-2.86058e-07 3.72254e-07 -4.72953e-07
-5.20051e-08 2.92121e-08 -9.20407e-09
0.000982399 0.000565801 1.10607e-05
0.000647145 -0.000979067 0.000201784
0.000688162 -0.000987272 0.000130033
-1.13256e-06 7.52347e-07 -1.00169e-06
-2.73385e-07 3.09835e-07 -4.09484e-07
-5.61202e-07 2.36883e-07 -2.43659e-07
1.73278e-07 3.88291e-07 -5.21332e-07
0.00078847 0.000461585 0.000159727
0.000400039 0.000355254 -0.000517845
1.00526e-07 2.31073e-08 -1.36407e-08
1.48458e-07 2.05181e-08 -1.7654e-08
-7.87441e-08 7.68017e-07 -1.04708e-06
4.73676e-08 2.61476e-08 -2.00488e-08
0.000620719 -0.000179252 -0.000311516
3.63311e-08 9.36415e-07 -1.25577e-06
-4.20521e-07 1.77105e-07 -2.38906e-07
-2.20355e-07 1.27232e-06 -1.50865e-06
-8.13745e-09 8.26319e-09 -3.11551e-08
2.02301e-07 7.69251e-07 -1.02945e-06
2.31459e-07 3.72327e-07 -4.8647e-07