# vtk DataFile Version 4.2
vtk output
ASCII
DATASET UNSTRUCTURED_GRID

POINTS 343 double
0.0016116 0.00421626 -2.06338e-05
0.00311692 0.00502403 0.00213523
0 0.00419538 0.00112517
0.00277463 0.00199115 0.00190657
0.00744703 0.0025114 0.00493909
0.00744381 0.00393231 0.00630358
0.010975 0.00492933 0.00486243
0.0089612 0.00497488 0.00358072
0.00984648 0.00342723 0.00678978
0.00717989 0.00509067 0.00490972
0.00602044 0.0012023 0.00992086
0.00760643 0.00218699 0.00780693
0.00604006 7.79772e-05 0.0082406
0.00289052 0.00204018 0.00799668
0.00616802 0.00261747 0.00991857
0.0100053 0.00658453 0.0068202
0.00922648 0.00630956 0.00506784
0.00324949 0.00222772 0.0051048
0 0.00143586 0.00417514
0.00228975 0.00349618 0.00400771
0.00985215 0.00333344 0.00304061
0.0111648 0.00237427 0.00492504
0 0.00270918 0.00154168
0.00599693 0.00151385 -7.19523e-05
0.00721841 0.00228983 0.00210876
0.0057048 0.00360529 0.00153274
0.00193523 2.44012e-05 0.00403553
0.0060364 7.85526e-05 0.0016134
0.00377275 0.00700234 -4.61029e-05
0.00277795 0.00808952 0.00190886
0.00587777 0.00632761 0.00157233
0.0115065 0.00814301 0.00784971
0.0114658 0.00497684 0.00787531
0.0120684 0.00624856 0.00579589
0.0143703 0.00901905 0.00401671
0.0108966 0.00778544 0.0048279
0.0123137 0.0101496 0.00401487
0.0114755 0.00812955 0.00187663
0.00508588 0.00310498 0.00689551
0.00638327 0.0037484 0.00824159
0.00560588 0.00167866 0.00589858
0.00718945 0.00776484 0.00758472
0.00285097 0.00804545 0.00795345
0.00405196 0.0100502 0.00707539
0.00562158 0.0084743 0.00588631
0 0.00695361 0.00262895
0.00236168 0.00627047 0.00405757
0 0.0040177 0.00850214
0.00332186 0.00502918 0.00761941
0.00205561 0.00420083 0.00997387
0.0103151 0.00725853 0.00986369
0.00879744 0.00609078 0.008304
0.00294156 0.00798034 0.00470402
0.00436907 0.00700139 0.00641264
0.00227617 0.00610832 0.00589685
0.0143654 0.0059851 0.00812664
0 0.00718191 0.00711644
0.00227356 0.00580398 -2.88818e-05
0 0.00577432 0.00158701
0.0143667 0.00735592 0.00692976
0.00412016 0.00340364 0.00994546
0.014364 0.00162353 0.00399939
0.0115904 0.00211141 0.00183943
0.012085 0.00367472 0.00384957
0.00536725 0.00172291 0.00406047
0.0021602 0.0100277 0.00578713
0.00404845 5.25273e-05 0.00707704
0.00879307 0.00429286 0.00826254
0.0143665 0.00745009 0.00401953
0.0123058 0.000157217 0.00401634
0.00481268 0.00293613 -5.80791e-05
0.00388342 0.00159113 0.00994881
0.0040637 5.29694e-05 0.00278066
0.00689873 0.00528755 0.00746583
0.00454325 0.00320762 0.00310931
0 0.00849157 0.00581511
0.00700409 0.00376637 0.0036984
0.00220897 0.00273781 -2.79722e-05
0.00832986 0.00842761 0.00988948
0.00859169 0.0101047 0.00839427
0.0060449 0.0100744 0.00823941
0.00576554 0.0085749 0.0099232
0.014368 0.00866121 0.00563181
0.00452022 0.00689447 0.00309247
0 0.00748929 0.00137438
0.00196824 0.00751499 -2.51575e-05
0 0.00287343 0.00335182
0 0.00580816 0.00831736
0 0.00429792 0.00253898
0.00364317 0.00434523 -4.44989e-05
0.00205514 0.00584566 0.00997378
0.00743898 0.00656952 0.00630572
0.00517434 0.00657796 0.00816705
0.00998593 0.00275435 0.00986834
0.0115307 0.00210559 0.0078868
0.0100189 0.000129009 0.00295907
0.00865164 0.00177609 0.00350578
0.0143645 0.00305721 0.00317764
0 0.00140616 0.00256446
0.00915908 0.00834091 0.00630457
0.00836421 0.00154423 -9.95054e-05
0.00867755 0.00366326 0.00149782
0.00452682 0.010056 0.00576663
0.0123046 0.0101497 0.0056768
0.00368002 0.00145413 -4.48285e-05
0.00858951 0.000111325 0.00138969
0.00902816 0.00839965 0.00350452
0.0122974 0.000157131 0.00567816
0.00891721 0.00178769 0.00625264
0.00201257 0.00258961 0.0099743
0.0102352 0.00730899 -0.000122518
0.0074256 0.00778325 0.00207651
0.00854369 0.00620127 0.00149764
0 0.00686719 0.00578184
0.014367 0.0015945 0.00239332
0.00254424 0.00364303 0.00637545
0.0143717 0.00865624 0.00245042
0.0120919 0.0063393 0.00398333
0.00859667 0.0101054 0.00138792
0.0100147 0.000128735 0.00679992
0.0143631 0.0016227 0.0056373
0.0120682 0.00372579 0.00590808
0.00215968 2.72224e-05 0.00578794
0 0.0013659 0.00748679
0.00196006 2.47744e-05 0.00750451
0.0143656 0.0070426 0.00559799
0.0083628 0.00859569 -0.000100989
0 0.0075208 0.00859127
0.00195543 0.00751153 0.00997508
0.00607646 0.00828177 0.00355069
0.0123529 0.0101488 0.00735237
0.0143702 0.00879922 0.00733759
0.00829174 0.00169332 0.00989069
0.0104305 0.00431918 0.00986211
0 0.0057735 0.00666667
0.00196098 0.0100251 0.00750358
0 0.00863025 0.00752641
0.0123468 0.000159255 0.00235752
0.014368 0.00713007 0.00245623
0.0121629 0.00649264 0.00201593
0.0122316 0.00597528 0.00983926
0.0107616 0.00151213 0.00985858
0.0123455 0.000158838 0.00735431
0.0143647 0.00155313 0.00729961
0 0.00143551 0.00581971
0.00858427 0.000110704 0.00839538
0.0060494 7.84873e-05 0.00332427
0.0114084 0.00485171 0.00189681
0.0143658 0.00447897 0.00236787
0.00606998 0.0100746 0.0065884
0.00406611 0.0100501 0.00277922
0.00188036 2.39652e-05 0.00239427
0 0.00727418 0.00419576
0.0143644 0.00595099 0.00648071
0.0100264 0.0101223 0.00295707
0.0107908 0.00876771 0.00985724
0 0.00574334 0.00336387
0 0.0043297 0.00416652
0.00986984 0.00590683 0.00986962
0.0143626 0.00320533 0.00673058
0.00606456 7.85646e-05 0.0065901
0.00355249 0.0100439 0.00856535
0.0107645 0.00150551 -0.000127289
0.00829351 0.00676986 0.00989014
0.0143692 0.00769372 0.00839887
0.0123761 0.00770397 0.00983675
0.00994196 0.00315006 -0.000117812
0.00483026 0.00580584 -5.84859e-05
0.010828 0.00876367 -0.000129018
0.0108101 0.0101314 0.00125594
0.0083132 0.00697146 -9.99507e-05
0.0100268 0.0064965 0.00290965
0.0108028 0.000140338 0.00125712
0.00413609 0.00505092 0.0099454
0.00621549 0.0059115 0.00991755
0.00621413 0.00424474 0.00991774
0.0108061 0.01013 0.00847533
0.00354923 4.57601e-05 0.00856664
0.0143656 0.00592172 0.00318973
0 0.00302218 0.00691532
0.0143644 0.00419941 0.00831023
0.0122275 0.00417334 -0.000143687
0.0143685 0.00289351 0.00137557
0 0.00244495 0.00857025
0.00350607 0.00861407 0.00995371
0.0107983 0.00013955 0.00847681
0.0121993 0.00277844 0.00983962
0.0127217 0.00435379 0.00983213
0.00814844 0.0100996 0.00572937
0.00745075 0.00767671 0.00493806
0.00810967 0.010099 0.00411246
0.010022 0.0101221 0.00679846
0.00433518 0.00697034 0.00994264
0.00598548 0.00440716 -7.17752e-05
0.00406707 5.25661e-05 0.00435355
0.00452292 5.87439e-05 0.00576882
0.0143699 0.00437719 0.000960122
0.00522458 0.00840344 0.00152279
0.0143638 0.00451011 0.00398969
0.00958609 0.00589385 -0.00011473
0.0123544 0.0101497 0.00235605
0 0.00848692 0.00262374
0.00193549 0.0100251 0.0040347
0 0.00885053 0.00419359
0.00602695 0.00892584 -7.331e-05
0.00604114 0.0100742 0.00161206
0.00718219 0.00488346 0.00229021
0.0103809 0.00465339 -0.000123134
0.00810252 0.000104653 0.00411499
0.00814174 0.000105198 0.00573136
0.00188026 0.0100241 0.00239331
0.0123248 0.00260376 -0.000145138
0.014363 0.00470214 0.00703283
0.0102288 0.0101248 0.00487102
0.00824781 0.00346838 0.00989087
0.00352621 4.62067e-05 0.0013124
0.0143655 0.00263001 0.00837804
0.00343447 0.0048352 0.00495615
0.00838485 0.00443741 -9.98318e-05
0.0119635 0.00595696 -0.000140672
0.00787265 0.0100963 0.00711898
0.0143624 0.00451044 0.0056512
0.00776587 0.0100951 0.00267831
0.0102216 0.000131308 0.00487267
0.00406962 0.0100503 0.00435148
0 0.00452174 0.00721958
0.0064912 0.00730096 0.00991375
0.00786594 0.000101636 0.00712013
0.00517207 0.00514033 0.00353052
0.00610638 0.0100747 0.00492975
0.00610085 7.92965e-05 0.00493231
0.00526813 0.00528393 0.00610789
0 0.005744 0.00499998
0 0.00433013 0.00583333
0.00718614 0.00583574 -8.61806e-05
0.00716147 0.00642998 0.00346372
0.007759 0.00010039 0.00268022
0.0143642 0.00592105 0.00481988
0.00529742 0.00647578 0.00477651
0.00824961 0.00510329 0.00989077
0.0143697 0.0059518 0.00142015
0 0.00666667 0
0.0123592 0.00767246 -0.000145458
0.00478575 6.2938e-05 -5.7673e-05
0 0.01 0.00666667
0.00718351 0.010087 0.00990492
0 0.00288419 0.00499914
0.0143723 0.00766353 0.0012077
0.0143758 0.00684197 -0.000164197
0 0.005 0.01
0.00718326 0.00297718 -8.57283e-05
0 0.005 0
0.0143702 0.000191841 0.00316014
0.0143772 0.0101643 0.0064798
0.00602894 0.00735059 -7.29376e-05
0.014363 0.00306815 0.00481979
0.00718412 9.43219e-05 -8.61705e-05
0 0 0.00666667
0.00545197 0.00368646 0.0051573
0.00717762 9.2591e-05 0.0099061
0.0143685 0.000191288 0.00648199
0 0 0.005
0.0126328 0.0101519 0.00106982
0.014377 0.00894905 0.00105401
0.0143686 0.000191254 0.00482052
0.0143746 0.0051801 -0.000163038
0.00174771 0.00124255 -2.2133e-05
0 0.00122008 0.00122008
0 0.00333333 0.01
0 0.00666667 0.01
0.0126325 0.00893281 -0.000148643
0.0143786 0.0101638 0.00315764
0.00605441 0.0100742 0.00332206
0.0143733 0.00684143 0.00980267
0 0.00333333 0
0 0.00122008 0.00877992
0.00174596 2.20926e-05 0.00875825
0.00174579 0.00124209 0.0099777
0.012628 0.0101505 0.0086137
0.0017467 0.00880203 0.00997759
0 0.00877992 0.00877992
0.0143733 0.00894771 0.00858721
0.00959118 0.0101167 -0.00011617
0.0143713 0.00140974 0.00105406
0.00174714 0.0100221 0.00875758
0.0126271 0.00893071 0.00983251
0.0143719 0.00517866 0.00980327
0 0 0.00333333
0.00958331 0.000125272 -0.000114231
0.0126246 0.000164668 0.00107022
0.00173542 2.22991e-05 0.00118978
0 0.00877992 0.00122008
0.00174694 0.00880266 -2.23987e-05
0.0017351 0.0100221 0.00118889
0.0143677 0.00140824 0.00858797
0.0126215 0.0013832 0.0098336
0.00957608 0.000123651 0.00987454
0.012627 0.00138503 -0.000148183
0.0126204 0.000163475 0.0086153
0.0143746 0.00351749 -0.000162746
0.00478466 0.0100582 0.00993652
0.0035278 0.0100436 0.00131128
0.00958392 0.0101154 0.00987348
0.0143706 0.00351543 0.00980311
0 0.01 0.005
0.00376579 0.00853486 -4.63092e-05
0.0143771 0.010164 0.00482007
0 0.01 0.00333333
0 0.00166667 0
0.0143736 0.000191717 0.00149899
0 0.00166667 0.01
0 0.00833333 0
0.01438 0.00850483 -0.000164804
0.0143703 0.000190917 0.00814386
0.0143823 0.0101658 0.0014988
0.0143789 0.0101645 0.00814215
0.00238856 0.0100292 0.00996897
0 0.01 0.00833333
0.0119934 0.0101441 -0.000142557
0.0119851 0.000157418 -0.000141713
0.0119792 0.000155538 0.00984293
0.011987 0.0101423 0.00984164
0 0 0.00833333
0.0143767 0.00850181 0.00980361
0.0023892 3.15357e-05 -2.97376e-05
0 0 0.00166667
0.00478878 0.0100591 -5.87656e-05
0.0143716 0.0018543 0.00980436
0.0143759 0.00185638 -0.000163573
0.00238619 3.05917e-05 0.0099696
0.00238929 0.0100299 -3.02985e-05
0 0.01 0.00166667
0.0143822 0.0101662 0.00980501
0 0 0.01
0.014387 0.0101667 -0.000166089
0.0143742 0.00018974 0.00980696
0 0.01 0.01
0.014379 0.00019146 -0.00016516
0 0.01 0
0 0 0
0.0071898 0.0100879 -8.78224e-05
0.00478059 6.16714e-05 0.00993727
0 0.00833333 0.01

CELLS 343 686
1 0
1 1
1 2
1 3
1 4
1 5
1 6
1 7
1 8
1 9
1 10
1 11
1 12
1 13
1 14
1 15
1 16
1 17
1 18
1 19
1 20
1 21
1 22
1 23
1 24
1 25
1 26
1 27
1 28
1 29
1 30
1 31
1 32
1 33
1 34
1 35
1 36
1 37
1 38
1 39
1 40
1 41
1 42
1 43
1 44
1 45
1 46
1 47
1 48
1 49
1 50
1 51
1 52
1 53
1 54
1 55
1 56
1 57
1 58
1 59
1 60
1 61
1 62
1 63
1 64
1 65
1 66
1 67
1 68
1 69
1 70
1 71
1 72
1 73
1 74
1 75
1 76
1 77
1 78
1 79
1 80
1 81
1 82
1 83
1 84
1 85
1 86
1 87
1 88
1 89
1 90
1 91
1 92
1 93
1 94
1 95
1 96
1 97
1 98
1 99
1 100
1 101
1 102
1 103
1 104
1 105
1 106
1 107
1 108
1 109
1 110
1 111
1 112
1 113
1 114
1 115
1 116
1 117
1 118
1 119
1 120
1 121
1 122
1 123
1 124
1 125
1 126
1 127
1 128
1 129
1 130
1 131
1 132
1 133
1 134
1 135
1 136
1 137
1 138
1 139
1 140
1 141
1 142
1 143
1 144
1 145
1 146
1 147
1 148
1 149
1 150
1 151
1 152
1 153
1 154
1 155
1 156
1 157
1 158
1 159
1 160
1 161
1 162
1 163
1 164
1 165
1 166
1 167
1 168
1 169
1 170
1 171
1 172
1 173
1 174
1 175
1 176
1 177
1 178
1 179
1 180
1 181
1 182
1 183
1 184
1 185
1 186
1 187
1 188
1 189
1 190
1 191
1 192
1 193
1 194
1 195
1 196
1 197
1 198
1 199
1 200
1 201
1 202
1 203
1 204
1 205
1 206
1 207
1 208
1 209
1 210
1 211
1 212
1 213
1 214
1 215
1 216
1 217
1 218
1 219
1 220
1 221
1 222
1 223
1 224
1 225
1 226
1 227
1 228
1 229
1 230
1 231
1 232
1 233
1 234
1 235
1 236
1 237
1 238
1 239
1 240
1 241
1 242
1 243
1 244
1 245
1 246
1 247
1 248
1 249
1 250
1 251
1 252
1 253
1 254
1 255
1 256
1 257
1 258
1 259
1 260
1 261
1 262
1 263
1 264
1 265
1 266
1 267
1 268
1 269
1 270
1 271
1 272
1 273
1 274
1 275
1 276
1 277
1 278
1 279
1 280
1 281
1 282
1 283
1 284
1 285
1 286
1 287
1 288
1 289
1 290
1 291
1 292
1 293
1 294
1 295
1 296
1 297
1 298
1 299
1 300
1 301
1 302
1 303
1 304
1 305
1 306
1 307
1 308
1 309
1 310
1 311
1 312
1 313
1 314
1 315
1 316
1 317
1 318
1 319
1 320
1 321
1 322
1 323
1 324
1 325
1 326
1 327
1 328
1 329
1 330
1 331
1 332
1 333
1 334
1 335
1 336
1 337
1 338
1 339
1 340
1 341
1 342

CELL_TYPES 343
1
1
1
1
1
1
1
1
1
1
1
1
1
1
1
1
1
1
1
1
1
1
1
1
1
1
1
1
1
1
1
1
1
1
1
1
1
1
1
1
1
1
1
1
1
1
1
1
1
1
1
1
1
1
1
1
1
1
1
1
1
1
1
1
1
1
1
1
1
1
1
1
1
1
1
1
1
1
1
1
1
1
1
1
1
1
1
1
1
1
1
1
1
1
1
1
1
1
1
1
1
1
1
1
1
1
1
1
1
1
1
1
1
1
1
1
1
1
1
1
1
1
1
1
1
1
1
1
1
1
1
1
1
1
1
1
1
1
1
1
1
1
1
1
1
1
1
1
1
1
1
1
1
1
1
1
1
1
1
1
1
1
1
1
1
1
1
1
1
1
1
1
1
1
1
1
1
1
1
1
1
1
1
1
1
1
1
1
1
1
1
1
1
1
1
1
1
1
1
1
1
1
1
1
1
1
1
1
1
1
1
1
1
1
1
1
1
1
1
1
1
1
1
1
1
1
1
1
1
1
1
1
1
1
1
1
1
1
1
1
1
1
1
1
1
1
1
1
1
1
1
1
1
1
1
1
1
1
1
1
1
1
1
1
1
1
1
1
1
1
1
1
1
1
1
1
1
1
1
1
1
1
1
1
1
1
1
1
1
1
1
1
1
1
1
1
1
1
1
1
1
1
1
1
1
1
1
1
1
1
1
1
1
1
1
1
1
1
1
1
1
1
1
1
1
1
1
1
1
1
1
1
1
1
1
1
1
1
1
1
1
1
1

POINT_DATA 343
FIELD FieldData 8

NodeID_(#) 1 343 int
0
1
2
3
4
5
6
7
8
9
10
11
12
13
14
15
16
17
18
19
20
21
22
23
24
25
26
27
28
29
30
31
32
33
34
35
36
37
38
39
40
41
42
43
44
45
46
47
48
49
50
51
52
53
54
55
56
57
58
59
60
61
62
63
64
65
66
67
68
69
70
71
72
73
74
75
76
77
78
79
80
81
82
83
84
85
86
87
88
89
90
91
92
93
94
95
96
97
98
99
100
101
102
103
104
105
106
107
108
109
110
111
112
113
114
115
116
117
118
119
120
121
122
123
124
125
126
127
128
129
130
131
132
133
134
135
136
137
138
139
140
141
142
143
144
145
146
147
148
149
150
151
152
153
154
155
156
157
158
159
160
161
162
163
164
165
166
167
168
169
170
171
172
173
174
175
176
177
178
179
180
181
182
183
184
185
186
187
188
189
190
191
192
193
194
195
196
197
198
199
200
201
202
203
204
205
206
207
208
209
210
211
212
213
214
215
216
217
218
219
220
221
222
223
224
225
226
227
228
229
230
231
232
233
234
235
236
237
238
239
240
241
242
243
244
245
246
247
248
249
250
251
252
253
254
255
256
257
258
259
260
261
262
263
264
265
266
267
268
269
270
271
272
273
274
275
276
277
278
279
280
281
282
283
284
285
286
287
288
289
290
291
292
293
294
295
296
297
298
299
300
301
302
303
304
305
306
307
308
309
310
311
312
313
314
315
316
317
318
319
320
321
322
323
324
325
326
327
328
329
330
331
332
333
334
335
336
337
338
339
340
341
342

Component_(#) 1 343 int
0
0
0
0
0
0
0
0
0
0
0
0
0
0
0
0
0
0
0
0
0
0
0
0
0
0
0
0
0
0
0
0
0
0
0
0
0
0
0
0
0
0
0
0
0
0
0
0
0
0
0
0
0
0
0
0
0
0
0
0
0
0
0
0
0
0
0
0
0
0
0
0
0
0
0
0
0
0
0
0
0
0
0
0
0
0
0
0
0
0
0
0
0
0
0
0
0
0
0
0
0
0
0
0
0
0
0
0
0
0
0
0
0
0
0
0
0
0
0
0
0
0
0
0
0
0
0
0
0
0
0
0
0
0
0
0
0
0
0
0
0
0
0
0
0
0
0
0
0
0
0
0
0
0
0
0
0
0
0
0
0
0
0
0
0
0
0
0
0
0
0
0
0
0
0
0
0
0
0
0
0
0
0
0
0
0
0
0
0
0
0
0
0
0
0
0
0
0
0
0
0
0
0
0
0
0
0
0
0
0
0
0
0
0
0
0
0
0
0
0
0
0
0
0
0
0
0
0
0
0
0
0
0
0
0
0
0
0
0
0
0
0
0
0
0
0
0
0
0
0
0
0
0
0
0
0
0
0
0
0
0
0
0
0
0
0
0
0
0
0
0
0
0
0
0
0
0
0
0
0
0
0
0
0
0
0
0
0
0
0
0
0
0
0
0
0
0
0
0
0
0
0
0
0
0
0
0
0
0
0
0
0
0
0
0
0
0
0
0
0
0
0
0
0
0
0
0
0
0
0
0
0
0
0
0
0
0
0
0
0
0
0
0

NodalMass_(kg) 1 343 double
3.15563e-06
1.41304e-05
2.20912e-06
1.71484e-05
8.42e-06
9.09306e-06
1.01179e-05
7.52198e-06
6.81096e-06
5.58223e-06
3.10888e-06
1.07575e-05
4.87011e-06
1.64955e-05
3.0246e-06
8.05984e-06
6.703e-06
1.0877e-05
4.18978e-06
8.16106e-06
6.14143e-06
1.17902e-05
2.23114e-06
4.25176e-06
1.09915e-05
7.41467e-06
4.21871e-06
3.92484e-06
3.08766e-06
1.31268e-05
7.72627e-06
1.65404e-05
1.19037e-05
7.97564e-06
3.81683e-06
1.11001e-05
3.81317e-06
1.39137e-05
6.37414e-06
8.00975e-06
7.6712e-06
1.21135e-05
1.6399e-05
2.78633e-06
8.93599e-06
2.58087e-06
7.57362e-06
4.23241e-06
1.31286e-05
3.80168e-06
2.7746e-06
7.16776e-06
1.21307e-05
5.11765e-06
8.19728e-06
4.58094e-06
2.79503e-06
3.26126e-06
4.12443e-06
2.11915e-06
3.35177e-06
3.61669e-06
1.56838e-05
7.33679e-06
8.24695e-06
5.00369e-06
2.82625e-06
7.20276e-06
3.26815e-06
4.18751e-06
2.02785e-06
2.42152e-06
3.11835e-06
5.97459e-06
5.87101e-06
4.09374e-06
5.45463e-06
2.28825e-06
4.49759e-06
4.38192e-06
4.50892e-06
4.39234e-06
4.27273e-06
5.32031e-06
1.53201e-06
2.38869e-06
2.02885e-06
4.38798e-06
3.17972e-06
3.14298e-06
4.61567e-06
5.87645e-06
8.18088e-06
2.48341e-06
1.53815e-05
3.49683e-06
7.35227e-06
2.01314e-06
2.0408e-06
7.98183e-06
4.41293e-06
7.1389e-06
1.20123e-06
5.03343e-06
1.61257e-06
4.12601e-06
8.73748e-06
4.37849e-06
7.97173e-06
2.13557e-06
3.38137e-06
9.48623e-06
7.40262e-06
1.80226e-06
2.10222e-06
7.98889e-06
1.87983e-06
7.44814e-06
4.19782e-06
2.37156e-06
4.31705e-06
6.06441e-06
4.30905e-06
2.16843e-06
1.8986e-06
1.81294e-06
3.89762e-06
2.44299e-06
1.65628e-06
8.01374e-06
1.64513e-06
2.3931e-06
3.01363e-06
2.99431e-06
1.36541e-06
1.87293e-06
2.09622e-06
1.94762e-06
1.87618e-06
6.37913e-06
4.58628e-06
2.02767e-06
1.61999e-06
2.41284e-06
3.8865e-06
4.44973e-06
2.29839e-06
1.17349e-05
3.11811e-06
1.354e-06
3.45063e-06
1.81846e-06
2.9382e-06
1.37381e-06
2.41464e-06
2.10451e-06
2.63927e-06
2.14166e-06
1.7943e-06
3.19976e-06
1.36989e-06
2.43489e-06
2.08158e-06
1.3601e-06
2.17203e-06
1.89924e-06
3.16996e-06
2.6119e-06
2.37677e-06
1.60225e-06
1.90684e-06
5.49206e-06
1.87878e-06
3.14313e-06
2.97301e-06
1.18454e-06
1.89263e-06
2.04166e-06
2.73572e-06
2.42405e-06
3.23083e-06
3.19752e-06
3.2142e-06
1.94492e-06
1.61196e-06
1.86876e-06
3.22435e-06
2.1114e-06
2.96917e-06
6.15288e-06
2.3097e-06
2.39729e-06
2.38029e-06
2.64508e-06
1.66557e-06
1.82377e-06
2.06583e-06
5.73271e-06
2.08467e-06
2.18324e-06
2.43522e-06
3.1188e-06
3.17316e-06
2.05447e-06
1.9592e-06
3.05718e-06
6.44327e-06
2.08796e-06
2.72615e-06
2.15709e-06
1.86812e-06
2.0028e-06
2.10999e-06
2.88994e-06
2.3222e-06
2.3979e-06
1.97629e-06
6.4127e-06
2.16225e-06
3.29198e-06
2.10223e-06
2.66566e-06
1.94415e-06
2.91865e-06
2.58116e-06
2.11703e-06
2.09534e-06
1.91719e-06
7.06046e-06
2.25203e-06
2.06378e-06
6.28159e-06
2.12147e-06
2.90924e-06
2.12921e-06
6.4487e-06
1.41701e-06
2.0682e-06
6.58062e-06
2.52584e-06
2.39732e-06
7.42191e-07
2.22368e-06
7.06751e-07
7.00657e-07
8.93749e-07
2.53536e-06
2.26535e-06
1.33607e-06
7.84725e-07
2.32303e-06
6.06694e-07
6.68276e-07
6.84307e-07
2.51242e-06
2.31629e-06
7.8367e-07
6.80839e-07
6.22692e-06
6.7471e-07
6.65305e-07
7.01158e-07
1.8232e-06
1.90695e-06
6.86722e-07
7.04792e-07
1.86445e-06
2.28572e-06
6.8045e-07
7.16005e-07
1.82373e-06
6.01079e-07
2.02791e-06
7.4579e-07
5.74423e-07
1.80052e-06
1.454e-06
2.2702e-06
1.80636e-06
2.15356e-06
1.79089e-06
1.79456e-06
6.8231e-07
2.24737e-06
1.45239e-06
1.79556e-06
6.97875e-07
6.24265e-07
6.62717e-07
1.44627e-06
1.40138e-06
2.15258e-06
1.82851e-06
1.3994e-06
1.43932e-06
2.19226e-06
6.97732e-07
1.77726e-06
1.79162e-06
6.54258e-07
7.3397e-07
2.34895e-06
7.10392e-07
6.56982e-07
6.26314e-07
2.18926e-06
6.12493e-07
6.03901e-07
5.92831e-07
5.12031e-07
5.11667e-07
4.9467e-07
4.97016e-07
4.96269e-07
5.33079e-07
4.94191e-07
4.97855e-07
4.86862e-07
4.90626e-07
4.94649e-07
4.94954e-07
4.91922e-07
4.89615e-07
4.96354e-07
4.95189e-07
4.82188e-07
1.10854e-06
5.3299e-07
5.44763e-07
5.36655e-07
5.15417e-07
5.01772e-07
5.53774e-07
5.53774e-07
5.53774e-07
5.53774e-07
5.53774e-07
5.53774e-07
5.50785e-07
5.50785e-07
7.45291e-07
7.11668e-07
4.9897e-07

NodalForce_(N) 3 343 double
3.14518e-08 5.17473e-10 2.12294e-09
1.82809e-07 2.18195e-09 6.84844e-08
0.000267005 1.60594e-05 0.000578758
1.77182e-07 -1.3402e-08 5.99223e-08
-5.25931e-08 -7.78225e-08 3.37633e-07
-1.88075e-07 -5.52378e-08 3.92365e-07
1.38978e-08 -1.4127e-07 9.63057e-07
1.54529e-07 -5.72905e-08 4.69709e-07
-2.28269e-07 -1.02049e-07 5.32576e-07
-1.16355e-09 -2.04705e-08 2.10526e-07
-1.72858e-07 -3.40291e-08 1.12615e-07
-4.7078e-07 -1.33786e-07 5.40233e-07
-2.04559e-07 -6.49367e-08 1.65989e-07
-1.90144e-07 -1.8311e-08 7.72192e-08
-1.63046e-07 -2.28214e-08 1.15922e-07
-2.07873e-07 -7.54417e-08 6.57709e-07
8.85221e-09 -4.75034e-08 4.47989e-07
-8.77084e-09 -6.93107e-09 7.50104e-08
0.000809566 0.000615515 0.00035072
2.77844e-08 1.83246e-09 2.13596e-08
1.57684e-07 -9.01199e-08 4.70607e-07
-9.40963e-08 -2.65009e-07 1.1586e-06
0.00176495 -0.00034954 0.000372195
1.91997e-07 -3.82044e-08 1.39701e-07
3.12722e-07 -1.15491e-07 4.97739e-07
2.34935e-07 -2.66229e-08 2.24119e-07
1.80883e-09 -1.66169e-09 1.08222e-08
8.96719e-08 -3.7568e-08 1.29024e-07
1.11369e-07 3.22163e-09 3.73852e-08
1.60462e-07 1.33432e-08 5.72011e-08
2.72213e-07 3.73772e-09 2.44384e-07
-6.40963e-07 -2.54451e-07 1.81017e-06
-5.90195e-07 -1.94644e-07 1.27595e-06
-7.33536e-08 -1.27586e-07 9.20238e-07
1.31696e-07 -9.35029e-08 5.93119e-07
1.26914e-07 -1.37239e-07 1.04508e-06
1.34317e-07 -7.6851e-08 4.57518e-07
8.887e-07 -1.80823e-07 1.49374e-06
-9.93822e-08 -1.611e-08 1.2448e-07
-2.91121e-07 -3.33417e-08 3.05697e-07
-1.06754e-07 -5.45004e-08 1.59089e-07
-3.26573e-07 -6.20023e-08 5.6454e-07
-1.77867e-07 -1.28963e-08 8.86418e-08
-2.14149e-08 -5.5664e-09 3.43027e-08
-3.07688e-08 -2.4761e-08 2.0654e-07
0.0010336 -2.77446e-05 -0.000345068
2.70365e-08 -1.68285e-09 2.42074e-08
0.000408141 0.000571569 -0.000459928
-1.37912e-07 1.96853e-09 9.6033e-08
-4.5716e-08 -2.06538e-10 8.17473e-09
-1.87742e-07 -3.54587e-08 2.6133e-07
-3.2069e-07 -5.39032e-08 4.96867e-07
1.88487e-08 1.26638e-08 6.24507e-08
-3.40355e-08 1.32312e-09 6.81725e-08
-2.36597e-08 1.27815e-09 2.76493e-08
-2.19708e-07 -1.19833e-07 7.19182e-07
0.000791964 -0.000256894 2.12225e-05
5.41055e-08 1.08592e-09 9.21468e-09
0.0019205 -0.000598215 0.000681886
-4.79678e-08 -5.21059e-08 3.3306e-07
-1.25369e-07 -6.43863e-09 5.9397e-08
2.36961e-08 -1.36466e-07 5.56824e-07
6.91212e-07 -3.84005e-07 1.67197e-06
1.15024e-07 -1.55036e-07 8.38479e-07
6.09888e-09 -5.06258e-08 1.54147e-07
-7.23122e-09 -2.73292e-09 1.47025e-08
-4.97929e-08 -1.80971e-08 3.07083e-08
-3.52104e-07 -6.98534e-08 4.93904e-07
9.51364e-08 -7.62513e-08 5.05826e-07
-3.95001e-09 -1.39557e-07 4.92329e-07
8.52939e-08 -4.22945e-09 4.24795e-08
-9.0802e-08 -1.10538e-08 3.7824e-08
1.19627e-08 -1.62241e-08 3.55211e-08
-1.72726e-07 -1.94519e-08 2.49794e-07
5.60291e-08 -9.02774e-09 7.821e-08
0.00131619 -0.000314525 -0.000498179
6.45992e-08 -2.79143e-08 2.01302e-07
3.39981e-08 -6.0398e-10 5.43707e-09
-2.67655e-07 -4.34355e-08 3.00308e-07
-1.5727e-07 -4.8595e-08 3.04821e-07
-1.18108e-07 -2.21083e-08 1.64209e-07
-1.93982e-07 -2.36374e-08 1.53175e-07
1.86846e-08 -1.04226e-07 6.66507e-07
6.70739e-08 4.73297e-09 7.2625e-08
0.00119437 0.00035479 0.000208012
3.20189e-08 2.45312e-09 2.93269e-09
0.00120969 -0.000125188 -0.000290952
0.00187027 -0.000232503 -0.000497652
0.0010551 0.000780189 -0.000565206
1.0582e-07 -1.603e-09 3.5691e-08
-6.393e-08 3.1637e-10 1.11363e-08
-8.48065e-08 -2.10652e-08 2.60308e-07
-2.19177e-07 -6.40398e-09 2.10462e-07
-1.9719e-07 -4.81133e-08 2.16935e-07
-9.14873e-07 -4.00475e-07 1.63761e-06
5.68602e-08 -8.41942e-08 2.78028e-07
8.86228e-08 -1.13173e-07 4.31527e-07
5.38438e-08 -6.50871e-08 3.11132e-07
0.00178384 0.000795614 -5.72708e-05
-1.01566e-07 -7.38222e-08 5.39218e-07
2.63036e-07 -7.01303e-08 2.74554e-07
3.223e-07 -7.72769e-08 4.67081e-07
-5.1091e-10 -4.25191e-09 1.84174e-08
2.79016e-08 -1.07081e-07 6.02948e-07
4.83544e-08 -5.45149e-09 2.03604e-08
1.45189e-07 -7.70554e-08 2.67993e-07
2.63166e-07 -6.94098e-08 5.69842e-07
-1.31248e-07 -1.47126e-07 5.12144e-07
-2.33993e-07 -1.32979e-07 4.96426e-07
-2.45822e-08 -2.4056e-11 4.44588e-09
2.92535e-07 -2.84481e-08 3.0986e-07
4.04884e-07 -3.29338e-08 4.54358e-07
3.91279e-07 -2.9866e-08 4.75729e-07
0.000693778 0.00038748 -0.000434435
7.28231e-08 -7.93622e-08 3.24828e-07
-3.41429e-08 -1.68022e-09 3.27476e-08
1.1439e-07 -4.41616e-08 2.95414e-07
1.70391e-07 -1.17175e-07 8.51999e-07
2.68231e-07 -4.22111e-08 2.82435e-07
-1.08233e-07 -6.17865e-08 1.871e-07
-9.68223e-08 -1.64974e-07 6.62978e-07
-1.24905e-07 -1.28394e-07 6.96739e-07
-1.75457e-08 -4.89933e-09 1.1e-08
0.00146082 0.000187346 0.000392454
-1.40935e-08 -3.70291e-09 1.6273e-09
-8.64156e-10 -4.31421e-08 2.82025e-07
3.1317e-07 -2.07649e-08 2.548e-07
0.00167216 0.000467974 -0.000765942
-2.22063e-08 -2.14971e-09 5.42179e-09
1.50562e-07 -1.73824e-08 2.05822e-07
-3.84591e-08 -3.61078e-08 2.02708e-07
-5.95965e-08 -5.87265e-08 3.78024e-07
-2.27622e-07 -4.82458e-08 1.91846e-07
-2.31408e-07 -4.66108e-08 2.82634e-07
0.00113059 -0.000173847 0.000415432
-1.02021e-08 3.9461e-10 3.31716e-09
0.00146337 -0.000354368 0.000393505
5.43246e-08 -6.58704e-08 2.31997e-07
1.03948e-07 -4.14919e-08 2.92523e-07
3.69119e-07 -9.43676e-08 7.49149e-07
-3.56227e-07 -8.8439e-08 5.61242e-07
-1.75913e-07 -5.26117e-08 1.99601e-07
-9.49213e-08 -5.74431e-08 1.91104e-07
-1.24059e-07 -9.59034e-08 3.71281e-07
0.00107074 0.00055066 -0.000751253
-2.7796e-07 -9.4903e-08 2.84211e-07
1.0476e-08 -2.57202e-08 6.15767e-08
6.14963e-07 -1.88725e-07 1.22198e-06
1.45103e-07 -8.83706e-08 4.81329e-07
-1.19479e-08 -7.43134e-09 4.01847e-08
5.74777e-08 -8.96543e-09 4.03953e-08
7.65964e-09 2.24493e-10 1.39877e-09
0.00233146 0.000736033 -2.77054e-05
-2.78643e-08 -3.52289e-08 2.13434e-07
1.1272e-07 -3.37848e-08 1.98731e-07
-1.3662e-07 -3.47889e-08 2.16909e-07
0.00150952 0.000127878 -0.000680134
0.0009398 0.000828769 0.00177929
-1.27026e-07 -2.05949e-08 1.57466e-07
-1.13194e-07 -1.02825e-07 4.94713e-07
-3.72534e-08 -1.78414e-08 3.70085e-08
-4.20809e-08 -3.43404e-09 2.9717e-08
1.44267e-07 -5.00244e-08 2.04153e-07
-8.37928e-08 -9.13697e-09 9.13298e-08
-1.01509e-07 -5.44436e-08 3.42426e-07
-1.374e-07 -3.75123e-08 2.39093e-07
2.27042e-07 -4.94599e-08 2.72261e-07
1.19139e-07 2.22733e-09 5.72831e-08
2.23903e-07 -2.67264e-08 2.42487e-07
1.22439e-07 -2.46223e-08 1.61037e-07
1.43323e-07 -7.44997e-09 1.23521e-07
2.07376e-07 -4.62531e-08 4.44558e-07
8.12122e-08 -5.20904e-08 1.81884e-07
-1.11671e-07 -8.12309e-09 6.01524e-08
-1.55414e-07 -9.81184e-09 1.22995e-07
-6.22914e-08 -5.65948e-09 4.90428e-08
-7.82322e-08 -3.29612e-08 1.92821e-07
-5.05242e-08 -1.35748e-08 2.01613e-08
1.03306e-07 -6.87913e-08 4.22079e-07
0.00181458 -0.000118152 0.000266291
-1.88523e-07 -9.58485e-08 5.02907e-07
2.74395e-07 -6.66225e-08 3.88863e-07
1.85828e-07 -1.05574e-07 4.96848e-07
0.00139806 -0.000187968 -0.000320957
-4.71147e-08 -4.32053e-09 2.44951e-08
-1.36292e-07 -5.74366e-08 1.7885e-07
-2.87407e-07 -8.65902e-08 3.87123e-07
-1.77632e-07 -5.0488e-08 2.72458e-07
-3.49214e-09 -3.04877e-08 1.55819e-07
2.54371e-08 -2.55577e-08 2.57419e-07
5.12955e-08 -2.27447e-08 1.18832e-07
-3.67411e-08 -3.5259e-08 1.96369e-07
-8.56335e-08 4.52512e-10 5.20728e-08
1.41848e-07 -6.51471e-09 9.37339e-08
-6.81879e-09 -1.07267e-08 1.6786e-08
-2.32566e-08 -1.40945e-08 2.35232e-08
1.45587e-07 -5.85579e-08 3.21423e-07
1.94271e-07 -6.67478e-09 1.50821e-07
3.77398e-08 -5.83158e-08 3.22509e-07
1.73164e-07 -1.56986e-08 1.78435e-07
1.5632e-07 -4.85376e-08 2.97913e-07
0.00151523 -0.000302841 -8.91803e-05
6.63043e-09 -2.92713e-09 7.59585e-09
0.00134073 -0.000634988 1.76802e-05
1.17324e-07 -5.29387e-09 7.31457e-08
1.31581e-07 -1.83557e-08 1.04581e-07
2.0852e-07 -1.9956e-08 2.77562e-07
1.64376e-07 -2.72771e-08 1.93465e-07
-5.32757e-09 -4.95063e-08 1.33883e-07
-5.52848e-08 -4.05629e-08 1.06916e-07
1.26323e-08 -1.91061e-09 1.84696e-09
1.60766e-07 -5.14257e-08 2.45511e-07
-7.3143e-08 -5.91348e-08 3.28109e-07
4.69431e-08 -4.31076e-08 2.44006e-07
-1.60638e-07 -2.67635e-08 1.48925e-07
3.26103e-08 -6.68451e-09 2.16342e-08
-1.29561e-07 -7.06089e-08 3.06093e-07
5.2442e-09 8.92305e-10 5.24398e-08
1.46249e-07 -1.72655e-08 1.42065e-07
3.00323e-07 -4.562e-08 3.91425e-07
-3.76003e-08 -1.97586e-08 1.11885e-07
-3.03345e-08 -7.50531e-08 4.13356e-07
7.95239e-08 -1.67814e-08 9.73233e-08
-4.27322e-08 -7.40015e-08 2.38946e-07
2.07008e-08 -6.43222e-09 2.71898e-08
0.00165542 0.000297004 0.000724395
-1.07731e-07 -8.18185e-09 9.21178e-08
-8.08852e-08 -3.48984e-08 9.5121e-08
7.56523e-08 -3.54836e-09 1.21958e-07
1.92603e-08 -1.37873e-08 6.15431e-08
-2.2944e-08 -2.5835e-08 5.00123e-08
-4.93814e-08 -4.05131e-09 1.24332e-07
0.00201159 -0.00141732 8.01259e-05
0.00191131 0.000716939 -0.0011604
1.3743e-07 -1.03355e-09 1.08035e-07
1.32457e-07 -1.67502e-08 2.49469e-07
2.24486e-08 -2.29747e-08 6.96981e-08
1.80434e-08 -5.21645e-08 3.20734e-07
2.07567e-08 -6.0858e-10 1.18679e-07
-1.63422e-07 -1.94927e-08 1.6664e-07
1.64744e-07 -5.83775e-08 3.73202e-07
0.000817591 0.00073337 6.37113e-06
2.19027e-07 -3.2979e-08 2.79657e-07
2.41629e-08 -8.19108e-09 1.80885e-08
0.000887771 -6.22969e-06 -0.000980364
-4.58253e-08 -9.98475e-09 4.96921e-08
0.00204656 -0.00115803 0.000147559
1.79021e-07 -4.82571e-08 3.55194e-07
1.32522e-07 -2.99711e-08 2.13198e-07
0.000787404 -0.0010657 0.000116649
1.32316e-07 -1.7719e-08 1.12697e-07
0.000744652 0.00119497 -6.62325e-05
9.6416e-09 -2.92029e-08 1.02988e-07
-3.39653e-09 -1.96259e-08 1.0725e-07
1.43748e-07 -6.96208e-10 9.29822e-08
-6.02411e-09 -7.4449e-08 3.58122e-07
3.8541e-08 -1.40839e-08 3.98783e-08
0.000672777 -0.000166354 0.000798346
-2.03502e-08 -1.30152e-08 1.20289e-07
-4.61786e-08 -1.10026e-08 3.42006e-08
-2.89335e-08 -2.92527e-08 1.01396e-07
0.000429161 -0.000427693 0.00102958
1.57988e-07 -3.61459e-08 2.36539e-07
1.64389e-07 -4.3945e-08 3.0132e-07
-1.01569e-08 -2.98682e-08 1.05379e-07
6.51023e-08 -1.76794e-08 1.1194e-07
1.95891e-08 -2.26285e-09 3.15385e-09
0.000992912 0.000522089 5.22839e-05
0.000674392 -0.000993001 0.00017654
0.000720623 -0.000982242 9.86145e-05
1.87745e-07 -2.94443e-08 2.3824e-07
3.22471e-08 -1.60891e-08 9.41733e-08
4.9959e-08 -1.24107e-08 5.37312e-08
-5.48141e-08 -1.92714e-08 1.1891e-07
0.000761979 0.000486826 0.000135264
0.000412767 0.000358076 -0.000523845
-1.28847e-08 -3.08452e-09 3.73667e-09
-2.25533e-08 -1.11745e-09 3.58234e-09
-7.98878e-08 -4.28016e-08 2.37566e-07
-2.41572e-08 -2.28746e-09 6.15815e-09
0.000630991 -0.000213764 -0.000296341
-8.19291e-08 -4.73556e-08 2.85682e-07
6.26421e-08 -7.80927e-09 5.7182e-08
1.28642e-07 -8.78153e-08 3.48543e-07
-1.092e-08 -4.44567e-10 6.03709e-09
-1.22723e-07 -4.07193e-08 2.35864e-07
-5.57185e-08 -2.03341e-08 1.10317e-07
0.000385392 -0.000418445 0.000772634