# vtk DataFile Version 4.2
vtk output
ASCII
DATASET UNSTRUCTURED_GRID

POINTS 343 double
0.00161169 0.00421627 -2.06417e-05
0.00311711 0.00502408 0.00213518
0 0.00419538 0.00112517
0.00277485 0.00199119 0.00190653
0.00744784 0.00251161 0.00493876
0.00744468 0.00393252 0.00630323
0.0109761 0.00492973 0.00486175
0.00896194 0.00497517 0.00358026
0.00984768 0.00342756 0.0067892
0.00718056 0.00509087 0.00490941
0.00602145 0.00120245 0.00992061
0.0076075 0.00218721 0.00780655
0.006041 7.81082e-05 0.00824034
0.00289093 0.00204021 0.00799663
0.00616901 0.00261763 0.00991831
0.0100063 0.00658488 0.0068196
0.00922732 0.00630987 0.00506733
0.00324985 0.00222777 0.00510473
0 0.00143586 0.00417514
0.00228996 0.00349621 0.00400768
0.00985301 0.00333377 0.00304007
0.011166 0.00237467 0.00492435
0 0.00270918 0.00154168
0.0059973 0.00151399 -7.21392e-05
0.00721898 0.00229002 0.00210844
0.00570517 0.00360542 0.00153253
0.00193545 2.44061e-05 0.0040355
0.00603691 7.86622e-05 0.00161318
0.00377283 0.0070024 -4.61734e-05
0.00277806 0.00808955 0.00190881
0.00587806 0.00632774 0.00157211
0.0115078 0.00814345 0.00784895
0.0114672 0.00497727 0.00787456
0.0120696 0.00624904 0.00579509
0.0143715 0.00901963 0.00401569
0.0108975 0.00778585 0.00482723
0.0123146 0.01015 0.00401407
0.0114762 0.00812998 0.00187593
0.0050865 0.00310509 0.00689534
0.00638414 0.00374857 0.0082413
0.00560657 0.00167878 0.00589839
0.0071902 0.00776505 0.00758438
0.00285127 0.00804549 0.0079534
0.00405229 0.0100502 0.00707529
0.00562203 0.00847444 0.00588611
0 0.00695361 0.00262895
0.00236186 0.00627051 0.00405754
0 0.0040177 0.00850214
0.00332225 0.00502923 0.00761934
0.0020559 0.00420085 0.00997385
0.0103165 0.0072589 0.00986307
0.00879852 0.00609107 0.00830351
0.00294177 0.00798037 0.00470397
0.00436948 0.00700147 0.00641252
0.00227639 0.00610835 0.00589681
0.0143672 0.0059857 0.00812558
0 0.00718191 0.00711644
0.00227364 0.00580401 -2.89012e-05
0 0.00577432 0.00158701
0.0143683 0.00735652 0.00692871
0.00412083 0.00340372 0.00994534
0.0143656 0.00162409 0.00399838
0.0115914 0.00211182 0.00183874
0.0120861 0.00367518 0.00384879
0.00536781 0.00172303 0.00406029
0.00216035 0.0100277 0.0057871
0.00404903 5.25837e-05 0.00707694
0.00879424 0.00429314 0.00826205
0.0143678 0.00745068 0.0040185
0.0123072 0.000157634 0.00401553
0.00481292 0.00293622 -5.81998e-05
0.0038841 0.0015912 0.0099487
0.00406412 5.30215e-05 0.00278055
0.00689955 0.00528774 0.00746551
0.00454364 0.00320771 0.00310918
0 0.00849157 0.00581511
0.00700471 0.00376656 0.0036981
0.0022091 0.00273783 -2.79908e-05
0.00833092 0.00842788 0.00988904
0.00859257 0.0101049 0.00839379
0.00604551 0.0100745 0.00823914
0.00576627 0.00857505 0.00992298
0.0143694 0.0086618 0.00563076
0.0045205 0.00689455 0.00309234
0 0.00748929 0.00137438
0.0019683 0.007515 -2.51675e-05
0 0.00287343 0.00335182
0 0.00580816 0.00831736
0 0.00429792 0.00253898
0.00364331 0.00434529 -4.45677e-05
0.00205542 0.00584568 0.00997376
0.00743972 0.00656974 0.00630537
0.00517496 0.00657807 0.00816685
0.00998745 0.00275469 0.00986775
0.0115322 0.00210601 0.00788604
0.0100199 0.000129299 0.00295851
0.00865249 0.00177634 0.00350534
0.0143659 0.00305779 0.00317663
0 0.00140616 0.00256446
0.00915992 0.00834122 0.00630407
0.00836476 0.00154446 -9.9867e-05
0.00867816 0.00366353 0.00149739
0.00452713 0.010056 0.00576649
0.0123056 0.0101501 0.00567597
0.00368024 0.00145419 -4.4904e-05
0.00859026 0.000111544 0.00138927
0.00902873 0.00839995 0.00350404
0.012299 0.000157551 0.00567734
0.00891833 0.00178796 0.00625216
0.00201288 0.00258962 0.00997428
0.0102356 0.00730934 -0.000123052
0.00742594 0.00778347 0.00207618
0.00854416 0.00620154 0.00149722
0 0.00686719 0.00578184
0.0143684 0.00159506 0.00239233
0.00254453 0.00364306 0.00637541
0.0143728 0.00865682 0.00244942
0.0120929 0.00633978 0.00398255
0.00859694 0.0101057 0.00138749
0.0100161 0.000129039 0.00679933
0.0143648 0.00162327 0.00563626
0.0120696 0.00372625 0.00590728
0.00215996 2.72353e-05 0.0057879
0 0.0013659 0.00748679
0.00196033 2.47925e-05 0.00750449
0.014367 0.00704319 0.00559695
0.008363 0.00859594 -0.000101365
0 0.0075208 0.00859127
0.00195568 0.00751156 0.00997505
0.0060768 0.00828192 0.00355047
0.0123541 0.0101493 0.00735152
0.0143718 0.00879981 0.00733654
0.0082931 0.00169356 0.00989025
0.010432 0.00431955 0.00986147
0 0.0057735 0.00666667
0.00196116 0.0100251 0.00750355
0 0.00863025 0.00752641
0.0123481 0.000159669 0.00235674
0.0143691 0.00713066 0.00245524
0.0121638 0.00649311 0.00201517
0.0122333 0.00597576 0.00983845
0.0107633 0.0015125 0.0098579
0.0123472 0.000159267 0.00735348
0.0143666 0.0015537 0.00729856
0 0.00143551 0.00581971
0.00858561 0.000110942 0.00839491
0.00605003 7.86083e-05 0.00332405
0.0114092 0.00485214 0.00189613
0.0143671 0.00447956 0.00236688
0.00607047 0.0100747 0.00658816
0.00406625 0.0100501 0.00277911
0.00188054 2.39677e-05 0.00239425
0 0.00727418 0.00419576
0.014366 0.00595159 0.00647966
0.0100269 0.0101226 0.00295651
0.0107921 0.00876811 0.00985658
0 0.00574334 0.00336387
0 0.0043297 0.00416652
0.0098712 0.00590718 0.00986904
0.0143644 0.00320592 0.00672953
0.00606541 7.86938e-05 0.00658987
0.00355284 0.010044 0.00856525
0.0107653 0.00150586 -0.000127862
0.00829463 0.00677012 0.0098897
0.0143709 0.00769432 0.00839782
0.0123776 0.00770446 0.00983592
0.00994257 0.00315039 -0.000118316
0.0048304 0.00580593 -5.8613e-05
0.0108284 0.00876405 -0.000129616
0.0108105 0.0101318 0.00125531
0.00831349 0.00697172 -0.000100322
0.0100276 0.00649686 0.00290909
0.0108037 0.000140664 0.00125651
0.00413671 0.00505101 0.00994527
0.00621638 0.00591165 0.00991728
0.00621507 0.00424491 0.00991747
0.0108072 0.0101304 0.00847463
0.0035498 4.58181e-05 0.00856656
0.0143669 0.00592232 0.00318873
0 0.00302218 0.00691532
0.0143663 0.00420001 0.00830917
0.0122283 0.00417381 -0.000144397
0.0143697 0.00289409 0.0013746
0 0.00244495 0.00857025
0.00350652 0.00861414 0.00995361
0.0108 0.000139903 0.00847612
0.0122011 0.0027789 0.0098388
0.0127235 0.0043543 0.00983127
0.00814906 0.0100998 0.00572896
0.00745133 0.00767693 0.00493773
0.00811014 0.0100993 0.00411207
0.0100229 0.0101224 0.00679786
0.00433577 0.00697041 0.0099425
0.00598573 0.00440731 -7.19797e-05
0.00406754 5.26289e-05 0.00435343
0.00452351 5.88138e-05 0.00576869
0.0143711 0.00437777 0.000959168
0.00522476 0.00840355 0.00152261
0.0143652 0.00451071 0.00398867
0.00958653 0.00589418 -0.000115202
0.0123551 0.0101502 0.00235525
0 0.00848692 0.00262374
0.0019356 0.0100251 0.00403468
0 0.00885053 0.00419359
0.00602704 0.00892599 -7.35257e-05
0.00604128 0.0100744 0.00161182
0.00718267 0.00488365 0.0022899
0.0103815 0.00465376 -0.000123677
0.00810343 0.000104861 0.0041146
0.00814279 0.00010541 0.00573096
0.00188033 0.0100241 0.00239329
0.0123257 0.00260421 -0.000145853
0.0143647 0.00470274 0.00703178
0.0102295 0.0101251 0.00487042
0.00824908 0.00346864 0.00989044
0.00352651 4.6241e-05 0.00131233
0.0143674 0.00263059 0.00837698
0.00343479 0.00483525 0.00495606
0.00838528 0.00443767 -0.000100215
0.0119641 0.00595742 -0.000141361
0.00787335 0.0100965 0.00711859
0.014364 0.00451104 0.00565015
0.00776619 0.0100953 0.00267795
0.0102228 0.000131613 0.00487207
0.00406982 0.0100503 0.00435138
0 0.00452174 0.00721958
0.00649207 0.00730112 0.00991347
0.00786707 0.000101838 0.00711974
0.00517247 0.00514044 0.00353036
0.00610675 0.0100748 0.00492952
0.00610159 7.94243e-05 0.00493209
0.00526867 0.00528404 0.00610771
0 0.005744 0.00499998
0 0.00433013 0.00583333
0.00718641 0.00583593 -8.647e-05
0.00716197 0.00643018 0.00346341
0.00775976 0.000100578 0.00267986
0.0143656 0.00592166 0.00481884
0.00529785 0.00647589 0.00477634
0.0082508 0.00510355 0.00989033
0.0143708 0.0059524 0.00141918
0 0.00666667 0
0.0123598 0.00767293 -0.000146191
0.00478607 6.30193e-05 -5.78023e-05
0 0.01 0.00666667
0.00718438 0.0100872 0.0099046
0 0.00288419 0.00499914
0.0143733 0.00766411 0.00120673
0.0143767 0.00684256 -0.000165124
0 0.005 0.01
0.00718366 0.00297737 -8.60093e-05
0 0.005 0
0.0143718 0.000192363 0.00315914
0.0143786 0.0101648 0.00647874
0.00602908 0.00735073 -7.31486e-05
0.0143645 0.00306873 0.00481876
0.00718462 9.44788e-05 -8.64424e-05
0 0 0.00666667
0.00545253 0.00368658 0.00515712
0.00717885 9.27721e-05 0.00990576
0.0143703 0.000191817 0.00648095
0 0 0.005
0.0126334 0.0101523 0.00106902
0.0143779 0.00894962 0.00105304
0.0143703 0.000191778 0.00481949
0.0143756 0.00518069 -0.000163958
0.00174783 0.00124258 -2.21448e-05
0 0.00122008 0.00122008
0 0.00333333 0.01
0 0.00666667 0.01
0.0126331 0.00893327 -0.000149409
0.0143797 0.0101644 0.00315663
0.00605467 0.0100743 0.00332184
0.0143752 0.00684202 0.00980164
0 0.00333333 0
0 0.00122008 0.00877992
0.00174623 2.21114e-05 0.00875822
0.00174605 0.00124211 0.00997768
0.0126294 0.010151 0.00861282
0.00174691 0.00880206 0.00997757
0 0.00877992 0.00877992
0.014375 0.00894829 0.00858616
0.00959141 0.010117 -0.000116669
0.0143726 0.00141029 0.0010531
0.00174732 0.0100221 0.00875754
0.0126286 0.00893119 0.00983165
0.0143738 0.00517926 0.00980223
0 0 0.00333333
0.00958403 0.000125534 -0.000114698
0.0126258 0.000165094 0.00106943
0.00173556 2.23049e-05 0.00118975
0 0.00877992 0.00122008
0.00174698 0.00880267 -2.24123e-05
0.00173515 0.0100221 0.00118886
0.0143697 0.0014088 0.00858692
0.0126234 0.00138366 0.00983274
0.00957768 0.000123936 0.00987399
0.0126279 0.00138548 -0.000148924
0.0126223 0.000163923 0.00861443
0.0143756 0.00351806 -0.000163661
0.00478523 0.0100583 0.00993635
0.00352786 0.0100437 0.0013112
0.00958504 0.0101157 0.00987293
0.0143727 0.00351602 0.00980207
0 0.01 0.005
0.00376583 0.00853491 -4.63888e-05
0.0143783 0.0101645 0.00481904
0 0.01 0.00333333
0 0.00166667 0
0.014375 0.000192235 0.00149802
0 0.00166667 0.01
0 0.00833333 0
0.0143809 0.0085054 -0.000165733
0.0143723 0.000191454 0.00814281
0.0143832 0.0101663 0.00149782
0.0143804 0.010165 0.00814108
0.00238883 0.0100293 0.00996892
0 0.01 0.00833333
0.0119938 0.0101445 -0.000143278
0.0119861 0.000157799 -0.000142389
0.0119811 0.000155952 0.00984214
0.0119884 0.0101427 0.00984086
0 0 0.00833333
0.0143785 0.0085024 0.00980258
0.00238937 3.15574e-05 -2.97746e-05
0 0 0.00166667
0.00478878 0.0100592 -5.89047e-05
0.0143737 0.00185487 0.00980332
0.0143771 0.00185693 -0.000164484
0.00238659 3.06232e-05 0.00996955
0.0023893 0.0100299 -3.03392e-05
0 0.01 0.00166667
0.014384 0.0101667 0.00980398
0 0 0.01
0.0143877 0.0101673 -0.000167031
0.0143763 0.000190279 0.00980592
0 0.01 0.01
0.0143803 0.000191975 -0.000166069
0 0.01 0
0 0 0
0.00718989 0.0100881 -8.81206e-05
0.00478144 6.17583e-05 0.00993711
0 0.00833333 0.01

CELLS 343 686
1 0
1 1
1 2
1 3
1 4
1 5
1 6
1 7
1 8
1 9
1 10
1 11
1 12
1 13
1 14
1 15
1 16
1 17
1 18
1 19
1 20
1 21
1 22
1 23
1 24
1 25
1 26
1 27
1 28
1 29
1 30
1 31
1 32
1 33
1 34
1 35
1 36
1 37
1 38
1 39
1 40
1 41
1 42
1 43
1 44
1 45
1 46
1 47
1 48
1 49
1 50
1 51
1 52
1 53
1 54
1 55
1 56
1 57
1 58
1 59
1 60
1 61
1 62
1 63
1 64
1 65
1 66
1 67
1 68
1 69
1 70
1 71
1 72
1 73
1 74
1 75
1 76
1 77
1 78
1 79
1 80
1 81
1 82
1 83
1 84
1 85
1 86
1 87
1 88
1 89
1 90
1 91
1 92
1 93
1 94
1 95
1 96
1 97
1 98
1 99
1 100
1 101
1 102
1 103
1 104
1 105
1 106
1 107
1 108
1 109
1 110
1 111
1 112
1 113
1 114
1 115
1 116
1 117
1 118
1 119
1 120
1 121
1 122
1 123
1 124
1 125
1 126
1 127
1 128
1 129
1 130
1 131
1 132
1 133
1 134
1 135
1 136
1 137
1 138
1 139
1 140
1 141
1 142
1 143
1 144
1 145
1 146
1 147
1 148
1 149
1 150
1 151
1 152
1 153
1 154
1 155
1 156
1 157
1 158
1 159
1 160
1 161
1 162
1 163
1 164
1 165
1 166
1 167
1 168
1 169
1 170
1 171
1 172
1 173
1 174
1 175
1 176
1 177
1 178
1 179
1 180
1 181
1 182
1 183
1 184
1 185
1 186
1 187
1 188
1 189
1 190
1 191
1 192
1 193
1 194
1 195
1 196
1 197
1 198
1 199
1 200
1 201
1 202
1 203
1 204
1 205
1 206
1 207
1 208
1 209
1 210
1 211
1 212
1 213
1 214
1 215
1 216
1 217
1 218
1 219
1 220
1 221
1 222
1 223
1 224
1 225
1 226
1 227
1 228
1 229
1 230
1 231
1 232
1 233
1 234
1 235
1 236
1 237
1 238
1 239
1 240
1 241
1 242
1 243
1 244
1 245
1 246
1 247
1 248
1 249
1 250
1 251
1 252
1 253
1 254
1 255
1 256
1 257
1 258
1 259
1 260
1 261
1 262
1 263
1 264
1 265
1 266
1 267
1 268
1 269
1 270
1 271
1 272
1 273
1 274
1 275
1 276
1 277
1 278
1 279
1 280
1 281
1 282
1 283
1 284
1 285
1 286
1 287
1 288
1 289
1 290
1 291
1 292
1 293
1 294
1 295
1 296
1 297
1 298
1 299
1 300
1 301
1 302
1 303
1 304
1 305
1 306
1 307
1 308
1 309
1 310
1 311
1 312
1 313
1 314
1 315
1 316
1 317
1 318
1 319
1 320
1 321
1 322
1 323
1 324
1 325
1 326
1 327
1 328
1 329
1 330
1 331
1 332
1 333
1 334
1 335
1 336
1 337
1 338
1 339
1 340
1 341
1 342

CELL_TYPES 343
1
1
1
1
1
1
1
1
1
1
1
1
1
1
1
1
1
1
1
1
1
1
1
1
1
1
1
1
1
1
1
1
1
1
1
1
1
1
1
1
1
1
1
1
1
1
1
1
1
1
1
1
1
1
1
1
1
1
1
1
1
1
1
1
1
1
1
1
1
1
1
1
1
1
1
1
1
1
1
1
1
1
1
1
1
1
1
1
1
1
1
1
1
1
1
1
1
1
1
1
1
1
1
1
1
1
1
1
1
1
1
1
1
1
1
1
1
1
1
1
1
1
1
1
1
1
1
1
1
1
1
1
1
1
1
1
1
1
1
1
1
1
1
1
1
1
1
1
1
1
1
1
1
1
1
1
1
1
1
1
1
1
1
1
1
1
1
1
1
1
1
1
1
1
1
1
1
1
1
1
1
1
1
1
1
1
1
1
1
1
1
1
1
1
1
1
1
1
1
1
1
1
1
1
1
1
1
1
1
1
1
1
1
1
1
1
1
1
1
1
1
1
1
1
1
1
1
1
1
1
1
1
1
1
1
1
1
1
1
1
1
1
1
1
1
1
1
1
1
1
1
1
1
1
1
1
1
1
1
1
1
1
1
1
1
1
1
1
1
1
1
1
1
1
1
1
1
1
1
1
1
1
1
1
1
1
1
1
1
1
1
1
1
1
1
1
1
1
1
1
1
1
1
1
1
1
1
1
1
1
1
1
1
1
1
1
1
1
1
1
1
1
1
1
1
1
1
1
1
1
1
1
1
1
1
1
1
1
1
1
1
1
1

POINT_DATA 343
FIELD FieldData 8

NodeID_(#) 1 343 int
0
1
2
3
4
5
6
7
8
9
10
11
12
13
14
15
16
17
18
19
20
21
22
23
24
25
26
27
28
29
30
31
32
33
34
35
36
37
38
39
40
41
42
43
44
45
46
47
48
49
50
51
52
53
54
55
56
57
58
59
60
61
62
63
64
65
66
67
68
69
70
71
72
73
74
75
76
77
78
79
80
81
82
83
84
85
86
87
88
89
90
91
92
93
94
95
96
97
98
99
100
101
102
103
104
105
106
107
108
109
110
111
112
113
114
115
116
117
118
119
120
121
122
123
124
125
126
127
128
129
130
131
132
133
134
135
136
137
138
139
140
141
142
143
144
145
146
147
148
149
150
151
152
153
154
155
156
157
158
159
160
161
162
163
164
165
166
167
168
169
170
171
172
173
174
175
176
177
178
179
180
181
182
183
184
185
186
187
188
189
190
191
192
193
194
195
196
197
198
199
200
201
202
203
204
205
206
207
208
209
210
211
212
213
214
215
216
217
218
219
220
221
222
223
224
225
226
227
228
229
230
231
232
233
234
235
236
237
238
239
240
241
242
243
244
245
246
247
248
249
250
251
252
253
254
255
256
257
258
259
260
261
262
263
264
265
266
267
268
269
270
271
272
273
274
275
276
277
278
279
280
281
282
283
284
285
286
287
288
289
290
291
292
293
294
295
296
297
298
299
300
301
302
303
304
305
306
307
308
309
310
311
312
313
314
315
316
317
318
319
320
321
322
323
324
325
326
327
328
329
330
331
332
333
334
335
336
337
338
339
340
341
342

Component_(#) 1 343 int
0
0
0
0
0
0
0
0
0
0
0
0
0
0
0
0
0
0
0
0
0
0
0
0
0
0
0
0
0
0
0
0
0
0
0
0
0
0
0
0
0
0
0
0
0
0
0
0
0
0
0
0
0
0
0
0
0
0
0
0
0
0
0
0
0
0
0
0
0
0
0
0
0
0
0
0
0
0
0
0
0
0
0
0
0
0
0
0
0
0
0
0
0
0
0
0
0
0
0
0
0
0
0
0
0
0
0
0
0
0
0
0
0
0
0
0
0
0
0
0
0
0
0
0
0
0
0
0
0
0
0
0
0
0
0
0
0
0
0
0
0
0
0
0
0
0
0
0
0
0
0
0
0
0
0
0
0
0
0
0
0
0
0
0
0
0
0
0
0
0
0
0
0
0
0
0
0
0
0
0
0
0
0
0
0
0
0
0
0
0
0
0
0
0
0
0
0
0
0
0
0
0
0
0
0
0
0
0
0
0
0
0
0
0
0
0
0
0
0
0
0
0
0
0
0
0
0
0
0
0
0
0
0
0
0
0
0
0
0
0
0
0
0
0
0
0
0
0
0
0
0
0
0
0
0
0
0
0
0
0
0
0
0
0
0
0
0
0
0
0
0
0
0
0
0
0
0
0
0
0
0
0
0
0
0
0
0
0
0
0
0
0
0
0
0
0
0
0
0
0
0
0
0
0
0
0
0
0
0
0
0
0
0
0
0
0
0
0
0
0
0
0
0
0
0
0
0
0
0
0
0
0
0
0
0
0
0
0
0
0
0
0
0

NodalMass_(kg) 1 343 double
3.15563e-06
1.41304e-05
2.20912e-06
1.71484e-05
8.42e-06
9.09306e-06
1.01179e-05
7.52198e-06
6.81096e-06
5.58223e-06
3.10888e-06
1.07575e-05
4.87011e-06
1.64955e-05
3.0246e-06
8.05984e-06
6.703e-06
1.0877e-05
4.18978e-06
8.16106e-06
6.14143e-06
1.17902e-05
2.23114e-06
4.25176e-06
1.09915e-05
7.41467e-06
4.21871e-06
3.92484e-06
3.08766e-06
1.31268e-05
7.72627e-06
1.65404e-05
1.19037e-05
7.97564e-06
3.81683e-06
1.11001e-05
3.81317e-06
1.39137e-05
6.37414e-06
8.00975e-06
7.6712e-06
1.21135e-05
1.6399e-05
2.78633e-06
8.93599e-06
2.58087e-06
7.57362e-06
4.23241e-06
1.31286e-05
3.80168e-06
2.7746e-06
7.16776e-06
1.21307e-05
5.11765e-06
8.19728e-06
4.58094e-06
2.79503e-06
3.26126e-06
4.12443e-06
2.11915e-06
3.35177e-06
3.61669e-06
1.56838e-05
7.33679e-06
8.24695e-06
5.00369e-06
2.82625e-06
7.20276e-06
3.26815e-06
4.18751e-06
2.02785e-06
2.42152e-06
3.11835e-06
5.97459e-06
5.87101e-06
4.09374e-06
5.45463e-06
2.28825e-06
4.49759e-06
4.38192e-06
4.50892e-06
4.39234e-06
4.27273e-06
5.32031e-06
1.53201e-06
2.38869e-06
2.02885e-06
4.38798e-06
3.17972e-06
3.14298e-06
4.61567e-06
5.87645e-06
8.18088e-06
2.48341e-06
1.53815e-05
3.49683e-06
7.35227e-06
2.01314e-06
2.0408e-06
7.98183e-06
4.41293e-06
7.1389e-06
1.20123e-06
5.03343e-06
1.61257e-06
4.12601e-06
8.73748e-06
4.37849e-06
7.97173e-06
2.13557e-06
3.38137e-06
9.48623e-06
7.40262e-06
1.80226e-06
2.10222e-06
7.98889e-06
1.87983e-06
7.44814e-06
4.19782e-06
2.37156e-06
4.31705e-06
6.06441e-06
4.30905e-06
2.16843e-06
1.8986e-06
1.81294e-06
3.89762e-06
2.44299e-06
1.65628e-06
8.01374e-06
1.64513e-06
2.3931e-06
3.01363e-06
2.99431e-06
1.36541e-06
1.87293e-06
2.09622e-06
1.94762e-06
1.87618e-06
6.37913e-06
4.58628e-06
2.02767e-06
1.61999e-06
2.41284e-06
3.8865e-06
4.44973e-06
2.29839e-06
1.17349e-05
3.11811e-06
1.354e-06
3.45063e-06
1.81846e-06
2.9382e-06
1.37381e-06
2.41464e-06
2.10451e-06
2.63927e-06
2.14166e-06
1.7943e-06
3.19976e-06
1.36989e-06
2.43489e-06
2.08158e-06
1.3601e-06
2.17203e-06
1.89924e-06
3.16996e-06
2.6119e-06
2.37677e-06
1.60225e-06
1.90684e-06
5.49206e-06
1.87878e-06
3.14313e-06
2.97301e-06
1.18454e-06
1.89263e-06
2.04166e-06
2.73572e-06
2.42405e-06
3.23083e-06
3.19752e-06
3.2142e-06
1.94492e-06
1.61196e-06
1.86876e-06
3.22435e-06
2.1114e-06
2.96917e-06
6.15288e-06
2.3097e-06
2.39729e-06
2.38029e-06
2.64508e-06
1.66557e-06
1.82377e-06
2.06583e-06
5.73271e-06
2.08467e-06
2.18324e-06
2.43522e-06
3.1188e-06
3.17316e-06
2.05447e-06
1.9592e-06
3.05718e-06
6.44327e-06
2.08796e-06
2.72615e-06
2.15709e-06
1.86812e-06
2.0028e-06
2.10999e-06
2.88994e-06
2.3222e-06
2.3979e-06
1.97629e-06
6.4127e-06
2.16225e-06
3.29198e-06
2.10223e-06
2.66566e-06
1.94415e-06
2.91865e-06
2.58116e-06
2.11703e-06
2.09534e-06
1.91719e-06
7.06046e-06
2.25203e-06
2.06378e-06
6.28159e-06
2.12147e-06
2.90924e-06
2.12921e-06
6.4487e-06
1.41701e-06
2.0682e-06
6.58062e-06
2.52584e-06
2.39732e-06
7.42191e-07
2.22368e-06
7.06751e-07
7.00657e-07
8.93749e-07
2.53536e-06
2.26535e-06
1.33607e-06
7.84725e-07
2.32303e-06
6.06694e-07
6.68276e-07
6.84307e-07
2.51242e-06
2.31629e-06
7.8367e-07
6.80839e-07
6.22692e-06
6.7471e-07
6.65305e-07
7.01158e-07
1.8232e-06
1.90695e-06
6.86722e-07
7.04792e-07
1.86445e-06
2.28572e-06
6.8045e-07
7.16005e-07
1.82373e-06
6.01079e-07
2.02791e-06
7.4579e-07
5.74423e-07
1.80052e-06
1.454e-06
2.2702e-06
1.80636e-06
2.15356e-06
1.79089e-06
1.79456e-06
6.8231e-07
2.24737e-06
1.45239e-06
1.79556e-06
6.97875e-07
6.24265e-07
6.62717e-07
1.44627e-06
1.40138e-06
2.15258e-06
1.82851e-06
1.3994e-06
1.43932e-06
2.19226e-06
6.97732e-07
1.77726e-06
1.79162e-06
6.54258e-07
7.3397e-07
2.34895e-06
7.10392e-07
6.56982e-07
6.26314e-07
2.18926e-06
6.12493e-07
6.03901e-07
5.92831e-07
5.12031e-07
5.11667e-07
4.9467e-07
4.97016e-07
4.96269e-07
5.33079e-07
4.94191e-07
4.97855e-07
4.86862e-07
4.90626e-07
4.94649e-07
4.94954e-07
4.91922e-07
4.89615e-07
4.96354e-07
4.95189e-07
4.82188e-07
1.10854e-06
5.3299e-07
5.44763e-07
5.36655e-07
5.15417e-07
5.01772e-07
5.53774e-07
5.53774e-07
5.53774e-07
5.53774e-07
5.53774e-07
5.53774e-07
5.50785e-07
5.50785e-07
7.45291e-07
7.11668e-07
4.9897e-07

NodalForce_(N) 3 343 double
1.52854e-07 -1.2584e-08 3.37096e-09
1.11301e-06 -2.11622e-07 3.00521e-07
0.000234752 7.34848e-06 0.000580581
6.91275e-07 -2.18074e-07 2.73258e-07
-2.2449e-07 -9.5283e-07 1.42678e-06
-5.10786e-07 -9.76701e-07 1.64777e-06
6.32616e-07 -2.2527e-06 3.85276e-06
9.90173e-07 -1.13614e-06 1.8998e-06
-7.34092e-07 -1.29425e-06 2.17172e-06
2.6948e-07 -5.39957e-07 8.88318e-07
-7.62185e-07 -2.67179e-07 4.39691e-07
-1.94975e-06 -1.33766e-06 2.21154e-06
-1.00412e-06 -4.22229e-07 6.73888e-07
-9.47566e-07 -2.1094e-07 3.61222e-07
-6.57416e-07 -2.49868e-07 4.49758e-07
-2.44475e-08 -1.49007e-06 2.6447e-06
6.09271e-07 -1.0696e-06 1.82381e-06
-1.01825e-07 -1.89345e-07 3.3308e-07
0.000834472 0.000603811 0.000378328
1.54669e-07 -4.28268e-08 8.49958e-08
7.01481e-07 -1.16013e-06 1.86423e-06
-3.78767e-07 -2.83955e-06 4.63569e-06
0.00177165 -0.000321569 0.000375904
6.65246e-07 -3.59718e-07 4.83651e-07
1.13533e-06 -1.24529e-06 1.97197e-06
1.03645e-06 -4.88305e-07 8.63681e-07
-4.28571e-08 -1.11635e-09 5.14576e-08
2.15257e-07 -2.98695e-07 5.07133e-07
5.90568e-07 -6.59065e-08 1.20735e-07
1.31296e-06 -8.26334e-08 2.41496e-07
1.56554e-06 -4.28032e-07 9.31462e-07
-1.35965e-07 -4.01135e-06 7.13539e-06
-1.53214e-06 -2.88027e-06 5.09725e-06
4.45263e-07 -2.10052e-06 3.63964e-06
1.06096e-06 -1.32378e-06 2.28356e-06
1.90794e-06 -2.44281e-06 4.15395e-06
1.21172e-06 -1.00366e-06 1.7686e-06
5.22684e-06 -3.34024e-06 5.66439e-06
-3.75238e-07 -3.25773e-07 5.28437e-07
-1.03075e-06 -6.28028e-07 1.23217e-06
-5.47131e-07 -5.24458e-07 7.04714e-07
-1.66041e-08 -1.23308e-06 2.24946e-06
-2.21769e-08 -2.38457e-07 3.24133e-07
1.71941e-07 -7.5846e-08 1.2915e-07
7.71597e-07 -5.57924e-07 8.5336e-07
0.0010013 -5.67968e-05 -0.000339412
3.03741e-07 -8.43366e-08 1.06642e-07
0.000455281 0.00055534 -0.000441176
-2.70254e-07 -2.02968e-07 4.02435e-07
-1.56013e-07 -2.65846e-08 2.34409e-08
-4.1921e-07 -5.50393e-07 1.00358e-06
-6.94234e-07 -1.03995e-06 1.9723e-06
6.46845e-07 -9.51224e-08 2.59885e-07
1.4067e-07 -1.45231e-07 2.77422e-07
7.55368e-08 -6.47274e-08 1.1824e-07
-4.7778e-07 -1.61819e-06 2.82262e-06
0.000759725 -0.000260893 6.75747e-06
2.92567e-07 -2.98102e-08 2.39005e-08
0.00190364 -0.00059673 0.000680438
5.26435e-08 -7.39713e-07 1.30166e-06
-4.79948e-07 -1.15534e-07 2.21284e-07
-3.65982e-09 -1.30675e-06 2.16309e-06
2.42928e-06 -4.01857e-06 6.42823e-06
6.28213e-07 -1.96557e-06 3.28844e-06
-8.09115e-08 -5.26683e-07 6.87831e-07
2.08146e-07 -1.59329e-09 5.27549e-08
-2.94296e-07 -1.03031e-07 1.39859e-07
-1.11474e-06 -1.07422e-06 1.97754e-06
7.20291e-07 -1.13335e-06 1.95496e-06
-2.38743e-07 -1.17252e-06 1.9445e-06
3.37007e-07 -8.83174e-08 1.44394e-07
-4.0361e-07 -8.39499e-08 1.45642e-07
-3.28687e-08 -1.09748e-07 1.49318e-07
-3.99098e-07 -5.10795e-07 1.01964e-06
2.83057e-07 -2.22297e-07 3.47108e-07
0.00126232 -0.00032473 -0.000497338
3.69693e-07 -5.12432e-07 8.43932e-07
1.39131e-07 -1.27144e-08 1.45683e-08
-4.79457e-07 -6.30554e-07 1.12894e-06
1.16776e-07 -6.07593e-07 1.19467e-06
1.00834e-07 -3.12755e-07 6.42737e-07
-3.40325e-07 -3.30999e-07 5.44872e-07
6.7533e-07 -1.48608e-06 2.59456e-06
5.88204e-07 -1.65284e-07 3.18362e-07
0.0011745 0.00037526 0.000190246
2.05636e-07 2.11453e-09 3.88089e-09
0.00120752 -0.000100916 -0.000305023
0.00194924 -0.000218669 -0.000499517
0.00106564 0.000772342 -0.000567942
4.75961e-07 -7.69137e-08 1.19195e-07
-1.77618e-07 -2.30776e-08 2.93708e-08
1.48514e-07 -5.99991e-07 1.06761e-06
-4.14112e-07 -3.43313e-07 8.25451e-07
-7.57419e-07 -4.97772e-07 8.51597e-07
-3.60399e-06 -3.96078e-06 6.61366e-06
3.68826e-08 -6.88943e-07 1.10551e-06
2.14084e-07 -1.14542e-06 1.75354e-06
2.14356e-07 -7.18555e-07 1.19668e-06
0.00178193 0.000786928 -6.83777e-05
6.79714e-07 -1.29149e-06 2.17727e-06
8.95911e-07 -6.60627e-07 9.85183e-07
1.38111e-06 -1.07303e-06 1.78331e-06
1.20539e-07 -5.08768e-08 7.90651e-08
1.04621e-06 -1.32887e-06 2.36858e-06
1.65523e-07 -5.56488e-08 6.90162e-08
3.48011e-07 -6.20259e-07 1.03173e-06
2.1815e-06 -1.3705e-06 2.2716e-06
-7.21936e-07 -1.22462e-06 2.05267e-06
-1.02186e-06 -1.30156e-06 2.0622e-06
-1.09677e-07 -5.07851e-09 1.43517e-08
1.48064e-06 -6.53774e-07 1.10904e-06
2.61717e-06 -1.01041e-06 1.74444e-06
2.083e-06 -9.93608e-07 1.78915e-06
0.000736466 0.000391266 -0.000403584
2.13119e-07 -7.58593e-07 1.24183e-06
-1.05799e-07 -7.49607e-08 1.48562e-07
6.87877e-07 -6.53745e-07 1.11718e-06
1.32612e-06 -1.97684e-06 3.34158e-06
1.73655e-06 -6.01065e-07 1.04208e-06
-5.30929e-07 -4.80136e-07 7.69905e-07
-4.6954e-07 -1.55996e-06 2.61449e-06
-2.974e-07 -1.62755e-06 2.77524e-06
-1.26781e-07 -1.94996e-08 5.24163e-08
0.00148099 0.00020752 0.000376743
-7.96426e-08 -1.49821e-08 9.13914e-09
1.83532e-07 -6.2985e-07 1.09956e-06
1.71326e-06 -5.17706e-07 8.95571e-07
0.00167848 0.000478539 -0.000752374
-4.61929e-08 -1.54922e-08 1.5234e-08
1.44958e-06 -5.6857e-07 8.58246e-07
1.60827e-07 -4.37481e-07 7.94513e-07
1.21089e-07 -8.26355e-07 1.47329e-06
-9.52407e-07 -4.39924e-07 7.54201e-07
-7.76956e-07 -6.17907e-07 1.10459e-06
0.00107388 -0.000162256 0.000404216
3.36678e-08 2.17538e-09 1.3628e-08
0.00146587 -0.000367612 0.000379437
9.70855e-08 -5.49967e-07 8.97536e-07
5.80575e-07 -6.47983e-07 1.11191e-06
1.98701e-06 -1.69789e-06 2.85612e-06
-9.75463e-07 -1.24116e-06 2.18128e-06
-7.2635e-07 -4.71055e-07 7.89772e-07
-4.43669e-07 -4.63705e-07 7.70414e-07
-5.31569e-07 -8.77507e-07 1.47555e-06
0.00109516 0.000545183 -0.000741468
-1.30266e-06 -6.9878e-07 1.15655e-06
-4.53978e-08 -1.89754e-07 2.63265e-07
2.95223e-06 -2.82665e-06 4.68829e-06
6.63335e-07 -1.10815e-06 1.83358e-06
1.33095e-07 -9.88109e-08 1.61923e-07
5.85326e-07 -1.00381e-07 1.66793e-07
1.58882e-08 1.56767e-09 9.81241e-09
0.00235254 0.00076242 -4.56459e-05
1.39198e-09 -4.85568e-07 8.37728e-07
8.55093e-07 -4.53785e-07 7.68757e-07
-2.13247e-07 -4.67342e-07 8.2449e-07
0.00150653 0.000158076 -0.000683335
0.000937313 0.000824456 0.00175898
-3.57178e-07 -3.28218e-07 6.08764e-07
-3.90441e-07 -1.14387e-06 1.95724e-06
-2.02221e-07 -1.18644e-07 1.59434e-07
2.62084e-08 -5.09344e-08 1.13532e-07
4.8873e-07 -4.78312e-07 7.4072e-07
-2.09304e-07 -1.73852e-07 3.46881e-07
-1.26565e-07 -7.57313e-07 1.33476e-06
-2.83759e-07 -5.24241e-07 9.219e-07
8.92633e-07 -6.11795e-07 9.86286e-07
5.81453e-07 -9.34234e-08 1.95499e-07
1.1944e-06 -5.09517e-07 8.70959e-07
7.48712e-07 -3.42876e-07 5.97578e-07
7.26677e-07 -2.47853e-07 4.34901e-07
1.29044e-06 -1.02801e-06 1.74663e-06
2.09131e-07 -4.25161e-07 6.91281e-07
-3.59036e-07 -1.08855e-07 2.22255e-07
-4.61149e-07 -2.05415e-07 4.62008e-07
-2.19931e-07 -9.01269e-08 1.86369e-07
4.32808e-08 -4.01763e-07 7.51824e-07
-2.61039e-07 -7.4174e-08 8.28633e-08
5.93265e-07 -9.68635e-07 1.62312e-06
0.00180676 -0.000124794 0.00025166
-6.01272e-07 -1.14725e-06 1.98458e-06
1.13476e-06 -8.78303e-07 1.41034e-06
6.91777e-07 -1.15465e-06 1.87133e-06
0.00140505 -0.000174778 -0.000334653
-8.59169e-08 -5.11784e-08 8.43264e-08
-6.14481e-07 -4.39963e-07 7.24237e-07
-1.08072e-06 -8.99102e-07 1.52611e-06
-5.86629e-07 -6.18712e-07 1.06761e-06
4.74234e-07 -3.84992e-07 6.37391e-07
7.60285e-07 -6.59896e-07 1.06763e-06
5.78422e-07 -2.98523e-07 4.78181e-07
2.86822e-07 -4.4593e-07 7.84964e-07
-2.13746e-07 -5.53277e-08 1.85274e-07
6.20303e-07 -1.79797e-07 3.29151e-07
-6.83956e-08 -6.8607e-08 8.39963e-08
-1.52314e-07 -8.53874e-08 1.11008e-07
6.1414e-07 -7.3432e-07 1.19703e-06
1.30398e-06 -3.07373e-07 5.71594e-07
2.28298e-07 -7.39505e-07 1.25085e-06
8.19036e-07 -3.75659e-07 6.36202e-07
1.03408e-06 -6.44854e-07 1.13094e-06
0.00147415 -0.000269876 -7.44309e-05
1.57464e-07 -9.9738e-09 2.91319e-08
0.00132658 -0.00063815 -6.53084e-06
6.7559e-07 -1.44591e-07 2.53569e-07
9.36286e-07 -2.36127e-07 3.90854e-07
1.08835e-06 -5.97255e-07 1.09022e-06
7.17582e-07 -4.29096e-07 6.98996e-07
-1.40586e-07 -3.82691e-07 5.64615e-07
-3.08052e-07 -3.05929e-07 4.5296e-07
1.30332e-07 -6.73543e-09 6.54303e-09
5.93782e-07 -5.63974e-07 8.91629e-07
-1.77076e-07 -7.48118e-07 1.29275e-06
6.96314e-07 -5.57735e-07 9.68066e-07
-5.95197e-07 -3.21753e-07 5.79546e-07
7.46609e-08 -5.44023e-08 9.03663e-08
-4.93873e-07 -7.1606e-07 1.21316e-06
1.62003e-07 -1.2349e-07 2.34231e-07
6.33227e-07 -2.9919e-07 5.10023e-07
1.38135e-06 -8.44829e-07 1.40939e-06
1.8715e-07 -2.51628e-07 4.4717e-07
-1.53825e-09 -9.46873e-07 1.61997e-06
6.21752e-07 -2.32947e-07 3.76891e-07
-3.09408e-07 -5.97461e-07 9.73365e-07
3.38786e-07 -7.35216e-08 1.15039e-07
0.001672 0.000306146 0.000705397
-2.5133e-07 -1.62036e-07 3.40322e-07
-4.01126e-07 -2.56876e-07 3.94489e-07
5.82382e-07 -3.22418e-07 5.37857e-07
3.87112e-07 -1.70171e-07 2.57263e-07
-1.7201e-07 -1.78654e-07 2.28357e-07
4.57415e-08 -2.92952e-07 5.29812e-07
0.00198888 -0.00140669 7.21209e-05
0.00194653 0.000724472 -0.00115964
6.56356e-07 -1.87622e-07 3.79477e-07
1.02273e-06 -6.13389e-07 1.03312e-06
2.42435e-08 -1.82102e-07 2.80205e-07
2.26723e-07 -7.32853e-07 1.24901e-06
4.788e-07 -3.02482e-07 5.12725e-07
-5.16983e-07 -3.23902e-07 6.40578e-07
7.90972e-07 -8.45623e-07 1.39642e-06
0.000797561 0.000736751 -6.37128e-06
1.08481e-06 -6.02181e-07 1.00706e-06
7.139e-08 -4.54287e-08 6.02083e-08
0.00088129 2.70377e-06 -0.000984451
-5.35911e-08 -9.29398e-08 1.76712e-07
0.00201966 -0.00116624 0.000147783
9.233e-07 -7.79575e-07 1.31912e-06
6.16333e-07 -4.66819e-07 7.70732e-07
0.000792332 -0.00106024 0.000111648
5.15415e-07 -2.40864e-07 4.00057e-07
0.000741508 0.0011954 -6.62869e-05
-3.92509e-10 -2.39034e-07 3.97597e-07
1.05407e-07 -2.29711e-07 4.18523e-07
7.65097e-07 -1.59667e-07 3.21439e-07
-3.26243e-09 -8.2508e-07 1.39848e-06
1.14242e-07 -9.26587e-08 1.3735e-07
0.000674094 -0.000172814 0.000796787
1.59621e-08 -3.40052e-07 5.27763e-07
-2.12749e-07 -7.94284e-08 1.32958e-07
-1.44276e-07 -2.37848e-07 4.03409e-07
0.000433796 -0.000422648 0.00102695
9.20739e-07 -4.97707e-07 8.73469e-07
8.86273e-07 -6.56232e-07 1.11509e-06
-7.4477e-08 -2.44622e-07 4.14056e-07
2.79142e-07 -2.47717e-07 4.04988e-07
7.10166e-08 -1.97519e-08 6.79871e-09
0.000999986 0.000511836 6.48678e-05
0.000685732 -0.00100003 0.000168366
0.000732781 -0.00097985 8.7847e-05
9.73451e-07 -5.0349e-07 8.59269e-07
2.23942e-07 -2.0114e-07 3.59328e-07
4.80147e-07 -1.55349e-07 2.18671e-07
-1.3461e-07 -2.60553e-07 4.57839e-07
0.000752475 0.000497168 0.000127708
0.00043121 0.00036818 -0.000527031
-6.82913e-08 -1.38178e-08 1.43258e-08
-1.08837e-07 -1.24623e-08 1.43273e-08
3.02637e-08 -5.00391e-07 9.21848e-07
-3.49386e-08 -1.97325e-08 1.66815e-08
0.000630896 -0.000224162 -0.0002905
-4.38494e-08 -6.24095e-07 1.10691e-06
3.56701e-07 -1.15096e-07 2.04996e-07
4.02826e-07 -8.13352e-07 1.30531e-06
7.18458e-09 -3.2909e-09 2.61349e-08
-1.8789e-07 -5.14673e-07 9.03077e-07
-1.70713e-07 -2.48915e-07 4.28083e-07
0.000382654 -0.000416417 0.00076877