# vtk DataFile Version 4.2
vtk output
ASCII
DATASET UNSTRUCTURED_GRID

POINTS 343 double
0.00161163 0.00421627 -2.06322e-05
0.00311694 0.00502405 0.00213524
0 0.00419538 0.00112517
0.00277468 0.00199117 0.00190657
0.00744713 0.00251157 0.00493918
0.00744381 0.00393245 0.00630368
0.010975 0.00492964 0.00486265
0.00896125 0.00497509 0.00358086
0.00984648 0.00342749 0.00678997
0.00717988 0.0050908 0.0049098
0.00602043 0.00120242 0.00992097
0.00760645 0.00218716 0.00780706
0.00604013 7.81006e-05 0.00824069
0.00289054 0.00204019 0.00799669
0.00616796 0.00261758 0.00991868
0.0100051 0.00658478 0.0068204
0.0092264 0.00630978 0.00506799
0.00324953 0.00222775 0.00510481
0 0.00143586 0.00417514
0.00228977 0.00349619 0.00400772
0.0098523 0.00333371 0.00304078
0.0111649 0.00237462 0.00492527
0 0.00270918 0.00154168
0.00599716 0.00151399 -7.1879e-05
0.00721859 0.00228999 0.00210885
0.00570491 0.00360537 0.0015328
0.00193528 2.44093e-05 0.00403554
0.00603663 7.86919e-05 0.00161346
0.00377279 0.00700237 -4.60745e-05
0.00277793 0.00808954 0.00190887
0.0058778 0.00632769 0.00157239
0.0115062 0.00814334 0.00784999
0.0114657 0.00497717 0.00787559
0.0120683 0.00624893 0.00579618
0.0143701 0.00901955 0.00401709
0.0108964 0.00778574 0.00482813
0.0123135 0.01015 0.00401517
0.0114755 0.00812989 0.00187688
0.00508589 0.00310505 0.00689555
0.00638322 0.0037485 0.00824169
0.00560596 0.00167876 0.00589862
0.00718925 0.00776497 0.00758484
0.0028509 0.00804546 0.00795346
0.00405181 0.0100502 0.00707542
0.00562145 0.00847439 0.00588637
0 0.00695361 0.00262895
0.00236168 0.00627049 0.00405758
0 0.0040177 0.00850214
0.00332183 0.0050292 0.00761943
0.00205558 0.00420084 0.00997388
0.0103148 0.00725879 0.00986395
0.00879726 0.00609097 0.00830418
0.00294152 0.00798035 0.00470403
0.00436901 0.00700143 0.00641268
0.00227615 0.00610833 0.00589686
0.0143652 0.00598559 0.00812704
0 0.00718191 0.00711644
0.00227358 0.00580399 -2.88738e-05
0 0.00577432 0.00158701
0.0143665 0.00735642 0.00693016
0.00412009 0.00340368 0.0099455
0.0143642 0.00162405 0.00399976
0.0115907 0.00211178 0.00183967
0.0120851 0.00367511 0.00384983
0.00536736 0.00172301 0.0040605
0.00216014 0.0100277 0.00578714
0.00404854 5.25844e-05 0.00707707
0.00879298 0.00429306 0.00826272
0.0143664 0.00745059 0.0040199
0.0123061 0.000157638 0.00401661
0.00481283 0.0029362 -5.80315e-05
0.0038834 0.00159118 0.00994886
0.00406385 5.30375e-05 0.00278068
0.00689864 0.00528767 0.00746594
0.00454331 0.00320767 0.00310933
0 0.00849157 0.00581511
0.00700417 0.0037665 0.00369848
0.00220902 0.00273782 -2.79647e-05
0.00832953 0.00842779 0.00988967
0.00859133 0.0101049 0.00839446
0.00604465 0.0100745 0.00823951
0.0057653 0.00857499 0.0099233
0.0143677 0.00866171 0.0056322
0.0045202 0.00689452 0.0030925
0 0.00748929 0.00137438
0.00196824 0.007515 -2.5153e-05
0 0.00287343 0.00335182
0 0.00580816 0.00831736
0 0.00429792 0.00253898
0.00364324 0.00434526 -4.4473e-05
0.00205509 0.00584567 0.00997379
0.00743887 0.00656966 0.00630582
0.00517422 0.00657802 0.00816712
0.00998585 0.00275461 0.00986857
0.0115307 0.00210594 0.00788708
0.0100192 0.000129317 0.00295924
0.00865183 0.00177631 0.0035059
0.0143646 0.00305773 0.003178
0 0.00140616 0.00256446
0.00915886 0.00834113 0.00630474
0.00836453 0.00154445 -9.937e-05
0.00867773 0.00366348 0.00149796
0.00452668 0.010056 0.00576666
0.0123043 0.0101501 0.0056771
0.00368016 0.00145419 -4.48005e-05
0.00858985 0.000111567 0.00138982
0.00902804 0.00839987 0.00350467
0.0122976 0.000157547 0.00567845
0.0089173 0.00178792 0.00625279
0.00201256 0.00258961 0.00997431
0.0102353 0.00730927 -0.000122303
0.00742556 0.00778341 0.00207661
0.00854375 0.00620147 0.00149778
0 0.00686719 0.00578184
0.0143673 0.00159504 0.00239367
0.00254424 0.00364304 0.00637546
0.0143716 0.00865674 0.0024508
0.0120918 0.00633968 0.0039836
0.00859655 0.0101056 0.00138807
0.0100149 0.000129032 0.00680012
0.0143632 0.00162322 0.00563768
0.0120683 0.00372617 0.00590836
0.00215972 2.72322e-05 0.00578794
0 0.0013659 0.00748679
0.00196008 2.47812e-05 0.00750451
0.0143654 0.00704309 0.00559838
0.00836279 0.00859589 -0.000100835
0 0.0075208 0.00859127
0.00195538 0.00751153 0.00997509
0.00607638 0.00828187 0.00355075
0.0123525 0.0101492 0.00735268
0.0143699 0.00879971 0.007338
0.00829171 0.00169352 0.00989086
0.0104303 0.00431946 0.00986236
0 0.0057735 0.00666667
0.00196092 0.0100251 0.00750358
0 0.00863025 0.00752641
0.0123472 0.000159685 0.00235778
0.014368 0.00713058 0.0024566
0.012163 0.00649302 0.0020162
0.0122314 0.00597565 0.00983959
0.0107616 0.00151245 0.00985884
0.0123456 0.000159256 0.00735461
0.0143647 0.00155365 0.0073
0 0.00143551 0.00581971
0.00858437 0.000110929 0.00839555
0.0060496 7.86253e-05 0.00332432
0.0114085 0.00485206 0.00189705
0.014366 0.00447948 0.00236823
0.00606977 0.0100747 0.00658847
0.00406601 0.0100501 0.00277925
0.00188042 2.39764e-05 0.00239427
0 0.00727418 0.00419576
0.0143642 0.00595149 0.0064811
0.0100262 0.0101225 0.00295726
0.0107904 0.008768 0.00985753
0 0.00574334 0.00336387
0 0.0043297 0.00416652
0.00986959 0.00590707 0.00986986
0.0143626 0.00320584 0.00673097
0.00606469 7.86939e-05 0.00659017
0.00355233 0.010044 0.00856538
0.0107649 0.00150585 -0.000127071
0.00829326 0.00677003 0.00989033
0.0143689 0.00769421 0.00839929
0.0123757 0.00770434 0.00983709
0.00994224 0.00315034 -0.000117622
0.00483033 0.0058059 -5.8437e-05
0.010828 0.00876399 -0.000128776
0.0108099 0.0101318 0.00125618
0.00831327 0.00697165 -9.97991e-05
0.0100268 0.00649677 0.00290983
0.0108032 0.000140691 0.00125732
0.00413599 0.00505095 0.00994545
0.00621532 0.00591158 0.00991766
0.00621402 0.00424483 0.00991786
0.0108057 0.0101303 0.0084756
0.00354928 4.58053e-05 0.00856667
0.0143656 0.00592223 0.0031901
0 0.00302218 0.00691532
0.0143643 0.00419991 0.00831063
0.0122278 0.00417375 -0.000143409
0.0143687 0.00289403 0.00137592
0 0.00244495 0.00857025
0.00350593 0.0086141 0.00995375
0.0107984 0.000139886 0.00847706
0.0121992 0.00277882 0.00983994
0.0127215 0.0043542 0.00983248
0.00814819 0.0100998 0.0057295
0.00745063 0.00767685 0.00493816
0.00810947 0.0100992 0.00411258
0.0100217 0.0101223 0.00679867
0.00433504 0.00697037 0.0099427
0.00598561 0.00440725 -7.16982e-05
0.00406719 5.26332e-05 0.00435356
0.00452304 5.8819e-05 0.00576884
0.0143701 0.0043777 0.000960482
0.00522455 0.00840352 0.00152284
0.0143639 0.00451062 0.00399006
0.00958623 0.0058941 -0.000114544
0.0123542 0.0101501 0.00235634
0 0.00848692 0.00262374
0.00193545 0.0100251 0.00403471
0 0.00885053 0.00419359
0.00602694 0.00892596 -7.32225e-05
0.00604103 0.0100744 0.00161213
0.00718226 0.00488359 0.0022903
0.0103811 0.00465369 -0.000122925
0.00810275 0.000104871 0.00411508
0.00814191 0.000105413 0.00573148
0.00188023 0.0100241 0.00239331
0.0123252 0.00260418 -0.000144861
0.0143629 0.00470264 0.00703322
0.0102285 0.0101251 0.00487123
0.0082477 0.00346856 0.00989105
0.00352636 4.62646e-05 0.00131242
0.0143655 0.00263051 0.00837844
0.00343447 0.00483523 0.00495616
0.00838504 0.00443761 -9.96872e-05
0.0119636 0.00595735 -0.000140394
0.00787236 0.0100964 0.00711912
0.0143624 0.00451094 0.00565158
0.00776572 0.0100953 0.00267842
0.0102218 0.00013162 0.00487286
0.0040695 0.0100503 0.00435151
0 0.00452174 0.00721958
0.00649097 0.00730106 0.00991388
0.00786607 0.000101835 0.00712025
0.00517209 0.0051404 0.00353056
0.0061062 0.0100748 0.00492982
0.00610102 7.94321e-05 0.00493236
0.0052681 0.00528399 0.00610794
0 0.005744 0.00499998
0 0.00433013 0.00583333
0.00718625 0.00583588 -8.60669e-05
0.00716145 0.00643011 0.0034638
0.00775927 0.000100597 0.00268031
0.0143641 0.00592155 0.00482026
0.00529739 0.00647584 0.00477654
0.00824943 0.00510345 0.00989095
0.0143698 0.00595231 0.00142052
0 0.00666667 0
0.0123593 0.00767285 -0.000145159
0.00478598 6.30362e-05 -5.76284e-05
0 0.01 0.00666667
0.00718317 0.0100872 0.00990508
0 0.00288419 0.00499914
0.0143724 0.00766404 0.00120807
0.0143759 0.00684248 -0.000163818
0 0.005 0.01
0.00718348 0.00297734 -8.56214e-05
0 0.005 0
0.0143706 0.000192376 0.00316049
0.0143769 0.0101648 0.0064802
0.00602897 0.00735069 -7.28522e-05
0.0143631 0.00306867 0.00482017
0.00718444 9.45096e-05 -8.60695e-05
0 0 0.00666667
0.005452 0.00368654 0.00515734
0.00717766 9.2775e-05 0.00990625
0.0143687 0.000191816 0.00648237
0 0 0.005
0.0126327 0.0101523 0.00107013
0.014377 0.00894956 0.00105439
0.0143688 0.000191785 0.00482088
0.0143748 0.00518063 -0.000162665
0.00174776 0.00124257 -2.21276e-05
0 0.00122008 0.00122008
0 0.00333333 0.01
0 0.00666667 0.01
0.0126325 0.00893322 -0.000148329
0.0143784 0.0101643 0.00315803
0.00605427 0.0100743 0.00332212
0.014373 0.00684191 0.0098031
0 0.00333333 0
0 0.00122008 0.00877992
0.00174598 2.21026e-05 0.00875826
0.00174579 0.0012421 0.0099777
0.0126276 0.0101509 0.00861404
0.00174665 0.00880204 0.0099776
0 0.00877992 0.00877992
0.014373 0.0089482 0.00858763
0.00959111 0.0101169 -0.000115965
0.0143717 0.00141028 0.00105441
0.00174708 0.0100221 0.00875759
0.0126266 0.00893109 0.00983286
0.0143717 0.00517915 0.00980369
0 0 0.00333333
0.00958372 0.000125562 -0.000114057
0.0126251 0.000165116 0.00107049
0.00173547 2.23132e-05 0.00118978
0 0.00877992 0.00122008
0.00174693 0.00880267 -2.23949e-05
0.00173508 0.0100221 0.0011889
0.0143677 0.00140875 0.00858838
0.0126215 0.00138362 0.00983394
0.00957612 0.000123938 0.00987478
0.0126274 0.00138548 -0.000147897
0.0126205 0.000163908 0.00861563
0.0143749 0.00351801 -0.00016238
0.00478441 0.0100583 0.00993659
0.00352774 0.0100437 0.00131131
0.00958348 0.0101156 0.00987372
0.0143705 0.00351593 0.00980352
0 0.01 0.005
0.00376579 0.00853491 -4.62787e-05
0.0143768 0.0101645 0.00482046
0 0.01 0.00333333
0 0.00166667 0
0.0143741 0.000192256 0.00149933
0 0.00166667 0.01
0 0.00833333 0
0.01438 0.00850535 -0.00016442
0.0143704 0.000191445 0.00814427
0.0143821 0.0101663 0.00149918
0.0143785 0.010165 0.00814256
0.00238845 0.0100292 0.00996899
0 0.01 0.00833333
0.0119933 0.0101445 -0.000142264
0.0119856 0.000157834 -0.000141453
0.0119793 0.000155944 0.00984326
0.0119865 0.0101427 0.00984198
0 0 0.00833333
0.0143763 0.0085023 0.00980404
0.0023893 3.15678e-05 -2.9726e-05
0 0 0.00166667
0.00478873 0.0100592 -5.87073e-05
0.0143715 0.00185482 0.00980477
0.0143763 0.00185692 -0.000163212
0.00238622 3.06184e-05 0.00996962
0.00238926 0.0100299 -3.02827e-05
0 0.01 0.00166667
0.0143817 0.0101667 0.00980544
0 0 0.01
0.0143869 0.0101673 -0.000165697
0.0143742 0.000190272 0.00980738
0 0.01 0.01
0.0143795 0.000192001 -0.000164805
0 0.01 0
0 0 0
0.00718975 0.0100881 -8.76988e-05
0.00478061 6.1766e-05 0.00993735
0 0.00833333 0.01

CELLS 343 686
1 0
1 1
1 2
1 3
1 4
1 5
1 6
1 7
1 8
1 9
1 10
1 11
1 12
1 13
1 14
1 15
1 16
1 17
1 18
1 19
1 20
1 21
1 22
1 23
1 24
1 25
1 26
1 27
1 28
1 29
1 30
1 31
1 32
1 33
1 34
1 35
1 36
1 37
1 38
1 39
1 40
1 41
1 42
1 43
1 44
1 45
1 46
1 47
1 48
1 49
1 50
1 51
1 52
1 53
1 54
1 55
1 56
1 57
1 58
1 59
1 60
1 61
1 62
1 63
1 64
1 65
1 66
1 67
1 68
1 69
1 70
1 71
1 72
1 73
1 74
1 75
1 76
1 77
1 78
1 79
1 80
1 81
1 82
1 83
1 84
1 85
1 86
1 87
1 88
1 89
1 90
1 91
1 92
1 93
1 94
1 95
1 96
1 97
1 98
1 99
1 100
1 101
1 102
1 103
1 104
1 105
1 106
1 107
1 108
1 109
1 110
1 111
1 112
1 113
1 114
1 115
1 116
1 117
1 118
1 119
1 120
1 121
1 122
1 123
1 124
1 125
1 126
1 127
1 128
1 129
1 130
1 131
1 132
1 133
1 134
1 135
1 136
1 137
1 138
1 139
1 140
1 141
1 142
1 143
1 144
1 145
1 146
1 147
1 148
1 149
1 150
1 151
1 152
1 153
1 154
1 155
1 156
1 157
1 158
1 159
1 160
1 161
1 162
1 163
1 164
1 165
1 166
1 167
1 168
1 169
1 170
1 171
1 172
1 173
1 174
1 175
1 176
1 177
1 178
1 179
1 180
1 181
1 182
1 183
1 184
1 185
1 186
1 187
1 188
1 189
1 190
1 191
1 192
1 193
1 194
1 195
1 196
1 197
1 198
1 199
1 200
1 201
1 202
1 203
1 204
1 205
1 206
1 207
1 208
1 209
1 210
1 211
1 212
1 213
1 214
1 215
1 216
1 217
1 218
1 219
1 220
1 221
1 222
1 223
1 224
1 225
1 226
1 227
1 228
1 229
1 230
1 231
1 232
1 233
1 234
1 235
1 236
1 237
1 238
1 239
1 240
1 241
1 242
1 243
1 244
1 245
1 246
1 247
1 248
1 249
1 250
1 251
1 252
1 253
1 254
1 255
1 256
1 257
1 258
1 259
1 260
1 261
1 262
1 263
1 264
1 265
1 266
1 267
1 268
1 269
1 270
1 271
1 272
1 273
1 274
1 275
1 276
1 277
1 278
1 279
1 280
1 281
1 282
1 283
1 284
1 285
1 286
1 287
1 288
1 289
1 290
1 291
1 292
1 293
1 294
1 295
1 296
1 297
1 298
1 299
1 300
1 301
1 302
1 303
1 304
1 305
1 306
1 307
1 308
1 309
1 310
1 311
1 312
1 313
1 314
1 315
1 316
1 317
1 318
1 319
1 320
1 321
1 322
1 323
1 324
1 325
1 326
1 327
1 328
1 329
1 330
1 331
1 332
1 333
1 334
1 335
1 336
1 337
1 338
1 339
1 340
1 341
1 342

CELL_TYPES 343
1
1
1
1
1
1
1
1
1
1
1
1
1
1
1
1
1
1
1
1
1
1
1
1
1
1
1
1
1
1
1
1
1
1
1
1
1
1
1
1
1
1
1
1
1
1
1
1
1
1
1
1
1
1
1
1
1
1
1
1
1
1
1
1
1
1
1
1
1
1
1
1
1
1
1
1
1
1
1
1
1
1
1
1
1
1
1
1
1
1
1
1
1
1
1
1
1
1
1
1
1
1
1
1
1
1
1
1
1
1
1
1
1
1
1
1
1
1
1
1
1
1
1
1
1
1
1
1
1
1
1
1
1
1
1
1
1
1
1
1
1
1
1
1
1
1
1
1
1
1
1
1
1
1
1
1
1
1
1
1
1
1
1
1
1
1
1
1
1
1
1
1
1
1
1
1
1
1
1
1
1
1
1
1
1
1
1
1
1
1
1
1
1
1
1
1
1
1
1
1
1
1
1
1
1
1
1
1
1
1
1
1
1
1
1
1
1
1
1
1
1
1
1
1
1
1
1
1
1
1
1
1
1
1
1
1
1
1
1
1
1
1
1
1
1
1
1
1
1
1
1
1
1
1
1
1
1
1
1
1
1
1
1
1
1
1
1
1
1
1
1
1
1
1
1
1
1
1
1
1
1
1
1
1
1
1
1
1
1
1
1
1
1
1
1
1
1
1
1
1
1
1
1
1
1
1
1
1
1
1
1
1
1
1
1
1
1
1
1
1
1
1
1
1
1
1
1
1
1
1
1
1
1
1
1
1
1
1
1
1
1
1
1

POINT_DATA 343
FIELD FieldData 8

NodeID_(#) 1 343 int
0
1
2
3
4
5
6
7
8
9
10
11
12
13
14
15
16
17
18
19
20
21
22
23
24
25
26
27
28
29
30
31
32
33
34
35
36
37
38
39
40
41
42
43
44
45
46
47
48
49
50
51
52
53
54
55
56
57
58
59
60
61
62
63
64
65
66
67
68
69
70
71
72
73
74
75
76
77
78
79
80
81
82
83
84
85
86
87
88
89
90
91
92
93
94
95
96
97
98
99
100
101
102
103
104
105
106
107
108
109
110
111
112
113
114
115
116
117
118
119
120
121
122
123
124
125
126
127
128
129
130
131
132
133
134
135
136
137
138
139
140
141
142
143
144
145
146
147
148
149
150
151
152
153
154
155
156
157
158
159
160
161
162
163
164
165
166
167
168
169
170
171
172
173
174
175
176
177
178
179
180
181
182
183
184
185
186
187
188
189
190
191
192
193
194
195
196
197
198
199
200
201
202
203
204
205
206
207
208
209
210
211
212
213
214
215
216
217
218
219
220
221
222
223
224
225
226
227
228
229
230
231
232
233
234
235
236
237
238
239
240
241
242
243
244
245
246
247
248
249
250
251
252
253
254
255
256
257
258
259
260
261
262
263
264
265
266
267
268
269
270
271
272
273
274
275
276
277
278
279
280
281
282
283
284
285
286
287
288
289
290
291
292
293
294
295
296
297
298
299
300
301
302
303
304
305
306
307
308
309
310
311
312
313
314
315
316
317
318
319
320
321
322
323
324
325
326
327
328
329
330
331
332
333
334
335
336
337
338
339
340
341
342

Component_(#) 1 343 int
0
0
0
0
0
0
0
0
0
0
0
0
0
0
0
0
0
0
0
0
0
0
0
0
0
0
0
0
0
0
0
0
0
0
0
0
0
0
0
0
0
0
0
0
0
0
0
0
0
0
0
0
0
0
0
0
0
0
0
0
0
0
0
0
0
0
0
0
0
0
0
0
0
0
0
0
0
0
0
0
0
0
0
0
0
0
0
0
0
0
0
0
0
0
0
0
0
0
0
0
0
0
0
0
0
0
0
0
0
0
0
0
0
0
0
0
0
0
0
0
0
0
0
0
0
0
0
0
0
0
0
0
0
0
0
0
0
0
0
0
0
0
0
0
0
0
0
0
0
0
0
0
0
0
0
0
0
0
0
0
0
0
0
0
0
0
0
0
0
0
0
0
0
0
0
0
0
0
0
0
0
0
0
0
0
0
0
0
0
0
0
0
0
0
0
0
0
0
0
0
0
0
0
0
0
0
0
0
0
0
0
0
0
0
0
0
0
0
0
0
0
0
0
0
0
0
0
0
0
0
0
0
0
0
0
0
0
0
0
0
0
0
0
0
0
0
0
0
0
0
0
0
0
0
0
0
0
0
0
0
0
0
0
0
0
0
0
0
0
0
0
0
0
0
0
0
0
0
0
0
0
0
0
0
0
0
0
0
0
0
0
0
0
0
0
0
0
0
0
0
0
0
0
0
0
0
0
0
0
0
0
0
0
0
0
0
0
0
0
0
0
0
0
0
0
0
0
0
0
0
0
0
0
0
0
0
0
0
0
0
0
0
0

NodalMass_(kg) 1 343 double
3.15563e-06
1.41304e-05
2.20912e-06
1.71484e-05
8.42e-06
9.09306e-06
1.01179e-05
7.52198e-06
6.81096e-06
5.58223e-06
3.10888e-06
1.07575e-05
4.87011e-06
1.64955e-05
3.0246e-06
8.05984e-06
6.703e-06
1.0877e-05
4.18978e-06
8.16106e-06
6.14143e-06
1.17902e-05
2.23114e-06
4.25176e-06
1.09915e-05
7.41467e-06
4.21871e-06
3.92484e-06
3.08766e-06
1.31268e-05
7.72627e-06
1.65404e-05
1.19037e-05
7.97564e-06
3.81683e-06
1.11001e-05
3.81317e-06
1.39137e-05
6.37414e-06
8.00975e-06
7.6712e-06
1.21135e-05
1.6399e-05
2.78633e-06
8.93599e-06
2.58087e-06
7.57362e-06
4.23241e-06
1.31286e-05
3.80168e-06
2.7746e-06
7.16776e-06
1.21307e-05
5.11765e-06
8.19728e-06
4.58094e-06
2.79503e-06
3.26126e-06
4.12443e-06
2.11915e-06
3.35177e-06
3.61669e-06
1.56838e-05
7.33679e-06
8.24695e-06
5.00369e-06
2.82625e-06
7.20276e-06
3.26815e-06
4.18751e-06
2.02785e-06
2.42152e-06
3.11835e-06
5.97459e-06
5.87101e-06
4.09374e-06
5.45463e-06
2.28825e-06
4.49759e-06
4.38192e-06
4.50892e-06
4.39234e-06
4.27273e-06
5.32031e-06
1.53201e-06
2.38869e-06
2.02885e-06
4.38798e-06
3.17972e-06
3.14298e-06
4.61567e-06
5.87645e-06
8.18088e-06
2.48341e-06
1.53815e-05
3.49683e-06
7.35227e-06
2.01314e-06
2.0408e-06
7.98183e-06
4.41293e-06
7.1389e-06
1.20123e-06
5.03343e-06
1.61257e-06
4.12601e-06
8.73748e-06
4.37849e-06
7.97173e-06
2.13557e-06
3.38137e-06
9.48623e-06
7.40262e-06
1.80226e-06
2.10222e-06
7.98889e-06
1.87983e-06
7.44814e-06
4.19782e-06
2.37156e-06
4.31705e-06
6.06441e-06
4.30905e-06
2.16843e-06
1.8986e-06
1.81294e-06
3.89762e-06
2.44299e-06
1.65628e-06
8.01374e-06
1.64513e-06
2.3931e-06
3.01363e-06
2.99431e-06
1.36541e-06
1.87293e-06
2.09622e-06
1.94762e-06
1.87618e-06
6.37913e-06
4.58628e-06
2.02767e-06
1.61999e-06
2.41284e-06
3.8865e-06
4.44973e-06
2.29839e-06
1.17349e-05
3.11811e-06
1.354e-06
3.45063e-06
1.81846e-06
2.9382e-06
1.37381e-06
2.41464e-06
2.10451e-06
2.63927e-06
2.14166e-06
1.7943e-06
3.19976e-06
1.36989e-06
2.43489e-06
2.08158e-06
1.3601e-06
2.17203e-06
1.89924e-06
3.16996e-06
2.6119e-06
2.37677e-06
1.60225e-06
1.90684e-06
5.49206e-06
1.87878e-06
3.14313e-06
2.97301e-06
1.18454e-06
1.89263e-06
2.04166e-06
2.73572e-06
2.42405e-06
3.23083e-06
3.19752e-06
3.2142e-06
1.94492e-06
1.61196e-06
1.86876e-06
3.22435e-06
2.1114e-06
2.96917e-06
6.15288e-06
2.3097e-06
2.39729e-06
2.38029e-06
2.64508e-06
1.66557e-06
1.82377e-06
2.06583e-06
5.73271e-06
2.08467e-06
2.18324e-06
2.43522e-06
3.1188e-06
3.17316e-06
2.05447e-06
1.9592e-06
3.05718e-06
6.44327e-06
2.08796e-06
2.72615e-06
2.15709e-06
1.86812e-06
2.0028e-06
2.10999e-06
2.88994e-06
2.3222e-06
2.3979e-06
1.97629e-06
6.4127e-06
2.16225e-06
3.29198e-06
2.10223e-06
2.66566e-06
1.94415e-06
2.91865e-06
2.58116e-06
2.11703e-06
2.09534e-06
1.91719e-06
7.06046e-06
2.25203e-06
2.06378e-06
6.28159e-06
2.12147e-06
2.90924e-06
2.12921e-06
6.4487e-06
1.41701e-06
2.0682e-06
6.58062e-06
2.52584e-06
2.39732e-06
7.42191e-07
2.22368e-06
7.06751e-07
7.00657e-07
8.93749e-07
2.53536e-06
2.26535e-06
1.33607e-06
7.84725e-07
2.32303e-06
6.06694e-07
6.68276e-07
6.84307e-07
2.51242e-06
2.31629e-06
7.8367e-07
6.80839e-07
6.22692e-06
6.7471e-07
6.65305e-07
7.01158e-07
1.8232e-06
1.90695e-06
6.86722e-07
7.04792e-07
1.86445e-06
2.28572e-06
6.8045e-07
7.16005e-07
1.82373e-06
6.01079e-07
2.02791e-06
7.4579e-07
5.74423e-07
1.80052e-06
1.454e-06
2.2702e-06
1.80636e-06
2.15356e-06
1.79089e-06
1.79456e-06
6.8231e-07
2.24737e-06
1.45239e-06
1.79556e-06
6.97875e-07
6.24265e-07
6.62717e-07
1.44627e-06
1.40138e-06
2.15258e-06
1.82851e-06
1.3994e-06
1.43932e-06
2.19226e-06
6.97732e-07
1.77726e-06
1.79162e-06
6.54258e-07
7.3397e-07
2.34895e-06
7.10392e-07
6.56982e-07
6.26314e-07
2.18926e-06
6.12493e-07
6.03901e-07
5.92831e-07
5.12031e-07
5.11667e-07
4.9467e-07
4.97016e-07
4.96269e-07
5.33079e-07
4.94191e-07
4.97855e-07
4.86862e-07
4.90626e-07
4.94649e-07
4.94954e-07
4.91922e-07
4.89615e-07
4.96354e-07
4.95189e-07
4.82188e-07
1.10854e-06
5.3299e-07
5.44763e-07
5.36655e-07
5.15417e-07
5.01772e-07
5.53774e-07
5.53774e-07
5.53774e-07
5.53774e-07
5.53774e-07
5.53774e-07
5.50785e-07
5.50785e-07
7.45291e-07
7.11668e-07
4.9897e-07

NodalForce_(N) 3 343 double
1.38546e-08 -8.15283e-09 1.01002e-09
1.41267e-07 -1.0427e-07 4.67111e-08
0.000269566 1.1243e-05 0.00057205
-1.123e-07 -1.27125e-07 5.17936e-08
-3.56021e-07 -5.81061e-07 1.80773e-07
-2.22945e-07 -5.35315e-07 1.78892e-07
2.80342e-08 -1.3071e-06 4.48016e-07
8.97804e-08 -6.43138e-07 2.43376e-07
-2.85082e-07 -7.58061e-07 2.29802e-07
2.26985e-08 -2.86662e-07 1.08599e-07
-2.14717e-07 -1.73253e-07 3.43516e-08
-6.81939e-07 -8.06676e-07 2.08244e-07
-3.97377e-07 -2.9031e-07 5.27295e-08
-3.11809e-07 -1.06876e-07 5.70352e-08
-1.51636e-07 -1.43433e-07 3.74316e-08
2.10585e-07 -8.14632e-07 2.69685e-07
2.00885e-07 -5.81446e-07 2.08265e-07
-1.57178e-07 -1.06223e-07 4.03427e-08
0.000827628 0.000608996 0.00034716
-2.13561e-08 -2.59562e-08 6.16255e-09
-1.19167e-07 -7.0078e-07 2.456e-07
-6.53365e-07 -1.75273e-06 5.45351e-07
0.00176877 -0.000334739 0.000380914
-8.96636e-08 -2.44007e-07 6.98336e-08
-3.10081e-07 -7.75951e-07 3.01644e-07
2.24982e-08 -2.65263e-07 1.30885e-07
-7.15937e-08 -1.35898e-08 7.7327e-09
-2.06249e-07 -2.36801e-07 8.36467e-08
1.04768e-07 -3.68233e-08 1.71772e-08
3.00122e-07 -6.08716e-08 4.11156e-08
2.80152e-07 -2.27258e-07 1.36406e-07
9.62656e-07 -2.23019e-06 7.01868e-07
-1.94866e-07 -1.65415e-06 5.02235e-07
2.29785e-07 -1.20301e-06 3.95574e-07
4.20736e-07 -7.86696e-07 2.58524e-07
7.75906e-07 -1.35969e-06 4.67119e-07
5.10009e-07 -6.10987e-07 1.98143e-07
1.39889e-06 -1.91013e-06 7.14949e-07
-1.54648e-07 -1.76085e-07 5.57432e-08
-2.42895e-07 -3.34036e-07 1.1947e-07
-3.60156e-07 -3.37002e-07 8.62152e-08
4.11879e-07 -6.39798e-07 2.18812e-07
1.56581e-07 -9.80553e-08 1.98573e-08
1.16584e-07 -5.1302e-08 9.62138e-09
3.75664e-07 -3.00023e-07 8.84979e-08
0.00102294 -3.47076e-05 -0.000338693
5.9229e-08 -3.79463e-08 1.54014e-08
0.000403744 0.00055589 -0.000465525
-1.64534e-08 -1.04811e-07 4.05954e-08
-2.10297e-08 -1.40903e-08 5.02062e-10
6.62512e-08 -3.02104e-07 8.77727e-08
4.23387e-08 -5.55349e-07 1.856e-07
1.89947e-07 -5.88176e-08 2.95226e-08
7.05444e-08 -7.22918e-08 2.63514e-08
2.81662e-08 -3.26213e-08 1.27265e-08
3.77358e-08 -9.47122e-07 2.79508e-07
0.00078553 -0.000268906 1.22667e-05
4.51541e-08 -1.52071e-08 2.6707e-09
0.00192277 -0.000600964 0.000684984
1.05069e-07 -4.33538e-07 1.34965e-07
-7.77385e-08 -5.88106e-08 2.04029e-08
-2.48024e-07 -8.35958e-07 2.56863e-07
-6.38301e-07 -2.54084e-06 8.71008e-07
-1.34246e-07 -1.18901e-06 3.9899e-07
-3.15192e-07 -3.42392e-07 1.00391e-07
9.48499e-08 -6.14663e-09 3.40613e-09
-1.57991e-07 -7.85865e-08 1.62991e-08
-2.17176e-07 -5.93435e-07 1.87125e-07
2.37704e-07 -6.70946e-07 2.23968e-07
-4.31639e-07 -7.90061e-07 2.39887e-07
9.89471e-09 -5.43629e-08 2.06325e-08
-9.66544e-08 -5.19358e-08 1.21218e-08
-1.39436e-07 -9.38074e-08 2.2399e-08
-4.39007e-08 -2.69383e-07 1.01375e-07
-4.80069e-08 -1.19453e-07 4.8394e-08
0.00130107 -0.000323324 -0.000506251
-6.12332e-08 -2.92349e-07 1.14894e-07
3.47182e-09 -6.1971e-09 9.9117e-10
1.72611e-07 -3.3677e-07 9.2443e-08
3.47007e-07 -3.60201e-07 1.14503e-07
2.42948e-07 -1.93725e-07 6.05872e-08
1.15258e-07 -1.7211e-07 3.69095e-08
3.84006e-07 -8.73615e-07 2.78048e-07
1.25972e-07 -8.71023e-08 4.59377e-08
0.0011951 0.00036853 0.000204945
4.08775e-08 -1.81605e-09 -4.03338e-11
0.00120836 -0.000120672 -0.000294631
0.00186632 -0.000232845 -0.000499587
0.00105709 0.000776423 -0.000561527
5.40946e-08 -4.10166e-08 1.72071e-08
-8.16923e-09 -1.23999e-08 9.05174e-10
1.28422e-07 -3.16028e-07 1.13244e-07
4.54261e-08 -1.64545e-07 7.27943e-08
-1.83578e-07 -2.95691e-07 7.63147e-08
-1.27892e-06 -2.42748e-06 6.48317e-07
-3.05106e-07 -4.80159e-07 1.53164e-07
-3.80234e-07 -7.29089e-07 2.44786e-07
-5.6734e-08 -4.46834e-07 1.45599e-07
0.00178755 0.000796627 -5.39921e-05
4.84779e-07 -7.07879e-07 2.22471e-07
-1.46386e-07 -4.37559e-07 1.42861e-07
-1.91347e-08 -6.36435e-07 2.53685e-07
5.85692e-08 -2.99174e-08 9.03064e-09
6.10966e-07 -8.01668e-07 2.49306e-07
-1.69135e-08 -3.79738e-08 1.02501e-08
-2.93322e-07 -4.43465e-07 1.57255e-07
6.99433e-07 -7.6465e-07 2.82001e-07
-5.00698e-07 -8.20093e-07 2.31086e-07
-5.54406e-07 -8.15686e-07 2.21638e-07
-2.51764e-08 -3.68867e-09 9.64387e-10
3.07288e-07 -3.74263e-07 1.43667e-07
6.48934e-07 -5.55527e-07 2.36696e-07
3.69283e-07 -5.44436e-07 2.43564e-07
0.000697294 0.000392994 -0.000427316
-1.21963e-07 -4.89482e-07 1.56005e-07
-5.03516e-08 -3.79679e-08 1.97656e-08
2.12528e-07 -3.88369e-07 1.32994e-07
3.27419e-07 -1.13728e-06 3.93755e-07
5.2183e-07 -3.63674e-07 1.32823e-07
-2.68781e-07 -3.23268e-07 7.92278e-08
-3.4648e-07 -9.92634e-07 2.89829e-07
-1.96373e-07 -9.74416e-07 3.05436e-07
-8.46207e-08 -2.06368e-08 6.49858e-09
0.00145652 0.000179798 0.000394189
-3.61321e-08 -9.12999e-09 6.28591e-10
9.34493e-08 -3.7169e-07 1.1856e-07
4.07303e-07 -3.02064e-07 1.16853e-07
0.00167552 0.000476715 -0.000763903
3.68114e-09 -3.6339e-09 5.75469e-11
4.34731e-07 -3.16058e-07 1.09482e-07
1.80526e-07 -2.64539e-07 7.95428e-08
1.94746e-07 -4.86247e-07 1.48051e-07
-2.62051e-07 -2.77996e-07 6.42431e-08
-1.25657e-07 -3.5196e-07 9.95187e-08
0.00113445 -0.000156335 0.000419134
2.68503e-08 -3.00358e-09 2.24365e-09
0.00145938 -0.00035106 0.000402112
-1.78365e-07 -3.74808e-07 1.20815e-07
1.42895e-07 -3.87573e-07 1.33628e-07
3.96929e-07 -9.91142e-07 3.59983e-07
-2.02256e-08 -7.07541e-07 2.00572e-07
-2.09101e-07 -2.96583e-07 6.96004e-08
-2.04897e-07 -3.08208e-07 7.60023e-08
-2.26668e-07 -5.55345e-07 1.52271e-07
0.00108534 0.000546464 -0.000757811
-5.01063e-07 -4.68647e-07 1.00742e-07
-1.50282e-07 -1.42395e-07 3.96894e-08
2.69582e-07 -1.67246e-06 6.11428e-07
3.72712e-08 -6.71419e-07 2.24427e-07
8.84473e-08 -6.0969e-08 1.48966e-08
1.92974e-07 -6.29787e-08 2.02022e-08
-2.47395e-08 -6.68499e-09 3.51328e-09
0.0023282 0.000740937 -2.51202e-05
2.5309e-08 -2.8518e-07 8.79345e-08
3.03597e-07 -2.74456e-07 9.33387e-08
1.17723e-07 -2.6023e-07 7.41216e-08
0.00149913 0.000135187 -0.00068469
0.000966673 0.00082494 0.00177474
-1.16303e-08 -1.78822e-07 5.4993e-08
-1.60595e-07 -7.01296e-07 2.05737e-07
-1.0843e-07 -8.38842e-08 1.70205e-08
7.83487e-08 -3.7313e-08 9.63943e-09
-8.07064e-08 -3.12941e-07 1.03274e-07
1.1204e-08 -9.37753e-08 2.90304e-08
1.03393e-07 -4.41992e-07 1.29192e-07
6.9568e-08 -2.94969e-07 8.45658e-08
-9.9677e-09 -3.79541e-07 1.38314e-07
8.87973e-08 -4.90171e-08 2.87174e-08
2.96138e-07 -2.99052e-07 1.10257e-07
2.29094e-07 -2.10641e-07 7.45528e-08
1.40078e-07 -1.37641e-07 5.73129e-08
2.84404e-07 -5.74299e-07 2.24221e-07
-1.48174e-07 -2.96852e-07 9.92793e-08
-3.17612e-08 -4.3834e-08 1.86205e-08
-2.89e-08 -1.00665e-07 3.71303e-08
-3.47641e-08 -4.44589e-08 1.57761e-08
1.77063e-07 -2.42694e-07 7.27811e-08
-1.02973e-07 -4.91057e-08 7.02058e-09
1.12727e-07 -5.74569e-07 1.93032e-07
0.00181388 -0.000105294 0.000279788
-1.20084e-07 -6.88049e-07 1.95701e-07
6.90857e-08 -5.35723e-07 1.87968e-07
-6.20078e-08 -7.23182e-07 2.39152e-07
0.00139521 -0.000180466 -0.000325704
2.20396e-08 -2.41459e-08 4.7584e-09
-2.36909e-07 -2.91394e-07 6.48093e-08
-2.61324e-07 -5.43357e-07 1.38314e-07
-9.29354e-08 -3.6385e-07 9.80882e-08
2.60809e-07 -2.29147e-07 6.60828e-08
2.9044e-07 -3.53731e-07 1.23061e-07
2.27303e-07 -1.78908e-07 5.59135e-08
2.3765e-07 -2.67343e-07 7.66028e-08
6.69673e-09 -2.84074e-08 1.28064e-08
6.02222e-08 -9.68059e-08 4.88034e-08
-7.80679e-08 -5.21813e-08 1.36075e-08
-1.06166e-07 -6.50908e-08 1.64793e-08
4.00477e-08 -4.49578e-07 1.52688e-07
3.22963e-07 -1.76624e-07 8.17839e-08
3.00554e-09 -4.46032e-07 1.46801e-07
1.23788e-07 -2.15699e-07 8.65603e-08
3.56059e-07 -3.96037e-07 1.34558e-07
0.00151383 -0.00030194 -9.66126e-05
5.40285e-08 -5.71571e-09 1.65425e-09
0.00133944 -0.000642581 1.99664e-05
1.62085e-07 -8.63437e-08 3.38157e-08
2.79045e-07 -1.42468e-07 5.11804e-08
1.04067e-07 -3.29206e-07 1.52039e-07
6.416e-08 -2.54154e-07 9.56555e-08
-2.25297e-07 -2.69147e-07 7.98053e-08
-2.00661e-07 -2.12488e-07 5.11449e-08
3.71839e-08 -3.65577e-09 2.22944e-10
-3.11509e-08 -3.56715e-07 1.20603e-07
-3.36902e-08 -4.46209e-07 1.33892e-07
3.31005e-07 -3.36441e-07 1.05729e-07
-1.21023e-07 -1.79046e-07 5.01452e-08
-8.02024e-08 -5.62744e-08 1.76095e-08
-1.49784e-07 -4.41434e-07 1.20524e-07
1.27835e-08 -6.36201e-08 3.0623e-08
4.93958e-08 -1.7243e-07 7.27511e-08
2.12206e-07 -5.05729e-07 1.82729e-07
1.65673e-07 -1.49628e-07 4.39924e-08
-2.89581e-08 -5.67867e-07 1.78016e-07
2.05093e-07 -1.4064e-07 4.59884e-08
-2.94569e-07 -4.10062e-07 1.18276e-07
1.29451e-07 -4.66505e-08 1.35856e-08
0.00166626 0.000296588 0.000724002
2.57112e-08 -8.40293e-08 2.63201e-08
-1.88474e-07 -1.76547e-07 3.78483e-08
6.50299e-08 -1.67129e-07 7.27078e-08
1.68818e-07 -1.0347e-07 2.90686e-08
-1.5289e-07 -1.29584e-07 3.31529e-08
6.84436e-09 -1.49285e-07 6.11495e-08
0.00200271 -0.00140725 8.04206e-05
0.00190824 0.000714605 -0.00116644
9.94278e-08 -1.05035e-07 5.3795e-08
2.23433e-07 -3.19894e-07 1.40149e-07
-1.02976e-07 -1.31165e-07 4.16754e-08
6.11557e-08 -4.31862e-07 1.40372e-07
1.2059e-07 -1.55126e-07 6.24418e-08
-5.46194e-08 -1.70577e-07 5.52807e-08
1.3059e-07 -5.06444e-07 1.74006e-07
0.000817921 0.000730834 7.05946e-06
2.35344e-07 -3.53528e-07 1.26553e-07
-2.46503e-08 -3.42819e-08 1.20154e-08
0.000881951 -2.63827e-06 -0.000979985
4.9686e-08 -5.65931e-08 1.63737e-08
0.00203696 -0.00115519 0.000150556
2.21654e-07 -4.67541e-07 1.63602e-07
1.17089e-07 -2.79582e-07 9.64625e-08
0.000783857 -0.00106295 0.000118906
-7.09212e-09 -1.50533e-07 5.75473e-08
0.000751525 0.00120105 -5.93245e-05
-6.53558e-08 -1.61172e-07 4.93633e-08
8.1662e-08 -1.41935e-07 4.27903e-08
1.52654e-07 -8.94566e-08 4.40743e-08
-9.31913e-08 -5.10677e-07 1.59893e-07
-3.98589e-08 -6.8653e-08 2.32341e-08
0.000680449 -0.000156906 0.00079904
-8.79798e-08 -1.81097e-07 6.60887e-08
-6.88521e-08 -5.6867e-08 8.53602e-09
-8.07519e-08 -1.59125e-07 4.29617e-08
0.00043401 -0.000424506 0.00103058
2.84946e-07 -3.09615e-07 1.067e-07
2.48064e-07 -3.96827e-07 1.36565e-07
-7.54513e-08 -1.64528e-07 4.7834e-08
3.30817e-08 -1.51958e-07 5.16741e-08
-6.62145e-09 -1.08589e-08 4.70399e-10
0.000987848 0.000515971 5.16994e-05
0.00067334 -0.000995188 0.000178558
0.000715103 -0.000980343 0.000102664
2.48201e-07 -3.04513e-07 1.05689e-07
8.6318e-08 -1.25872e-07 4.11179e-08
1.67557e-07 -9.36295e-08 2.63788e-08
1.26519e-08 -1.52193e-07 4.38366e-08
0.00076609 0.00048535 0.000137913
0.000412215 0.000347618 -0.000525865
-2.65514e-08 -8.93044e-09 -9.82857e-10
-2.95021e-08 -8.02591e-09 1.65419e-09
1.83932e-07 -3.03023e-07 9.05126e-08
1.12261e-08 -7.15437e-09 -2.51152e-10
0.000629204 -0.000217256 -0.000295411
1.37803e-07 -3.66643e-07 1.07794e-07
9.79201e-08 -7.31443e-08 2.44539e-08
-1.20076e-07 -5.30537e-07 1.71102e-07
1.73305e-08 -4.29152e-09 4.39535e-09
1.18414e-07 -2.95639e-07 8.47064e-08
-1.65557e-08 -1.46491e-07 4.09036e-08