# vtk DataFile Version 4.2
vtk output
ASCII
DATASET UNSTRUCTURED_GRID

POINTS 343 double
0.00161164 0.00421625 -2.06317e-05
0.00311698 0.005024 0.00213525
0 0.00419538 0.00112517
0.00277462 0.00199112 0.00190659
0.00744685 0.00251111 0.00493924
0.00744369 0.00393206 0.00630372
0.010975 0.00492878 0.00486275
0.00896129 0.00497452 0.00358095
0.00984627 0.00342675 0.00679003
0.00717991 0.00509045 0.00490986
0.00602007 0.00120206 0.00992096
0.00760611 0.00218667 0.00780709
0.00603966 7.77152e-05 0.00824069
0.00289043 0.00204015 0.00799671
0.00616774 0.00261727 0.00991867
0.0100054 0.0065841 0.00682045
0.00922661 0.00630919 0.00506807
0.00324943 0.00222768 0.00510483
0 0.00143586 0.00417514
0.00228975 0.00349617 0.00400772
0.00985211 0.00333295 0.00304089
0.0111645 0.00237363 0.00492538
0 0.00270918 0.00154168
0.00599691 0.00151361 -7.18375e-05
0.00721834 0.00228952 0.00210895
0.00570486 0.00360513 0.00153286
0.00193516 2.43877e-05 0.00403554
0.00603622 7.82935e-05 0.00161354
0.00377295 0.00700229 -4.60629e-05
0.00277806 0.0080895 0.00190888
0.00587798 0.00632749 0.00157245
0.0115067 0.00814244 0.00785005
0.0114656 0.00497625 0.00787564
0.0120685 0.00624792 0.00579627
0.0143708 0.00901818 0.00401722
0.0108969 0.00778492 0.00482822
0.0123143 0.0101489 0.00401527
0.011476 0.00812897 0.001877
0.00508575 0.00310486 0.00689557
0.00638309 0.00374822 0.0082417
0.00560567 0.00167847 0.00589866
0.00718955 0.00776462 0.00758487
0.00285099 0.00804542 0.00795346
0.00405212 0.0100501 0.00707542
0.00562175 0.00847416 0.00588639
0 0.00695361 0.00262895
0.00236172 0.00627045 0.00405759
0 0.0040177 0.00850214
0.00332184 0.00502915 0.00761944
0.00205557 0.00420081 0.00997387
0.0103151 0.00725807 0.00986396
0.0087974 0.00609045 0.00830421
0.00294162 0.00798032 0.00470404
0.00436912 0.00700133 0.00641269
0.00227618 0.00610831 0.00589686
0.0143654 0.00598422 0.00812711
0 0.00718191 0.00711644
0.00227364 0.00580396 -2.88747e-05
0 0.00577432 0.00158701
0.0143669 0.00735505 0.00693025
0.00412001 0.00340357 0.0099455
0.0143637 0.00162253 0.00399991
0.0115903 0.00211071 0.00183982
0.0120849 0.00367403 0.00384996
0.00536709 0.00172274 0.00406055
0.00216027 0.0100277 0.00578714
0.00404819 5.2405e-05 0.00707708
0.00879288 0.00429251 0.00826275
0.0143668 0.00744922 0.00402004
0.0123054 0.000156399 0.00401675
0.00481277 0.00293602 -5.80074e-05
0.00388321 0.00159104 0.00994885
0.00406353 5.28397e-05 0.0027807
0.00689866 0.00528736 0.00746596
0.00454323 0.00320753 0.00310936
0 0.00849157 0.00581511
0.00700407 0.00376614 0.00369855
0.002209 0.0027378 -2.79671e-05
0.00832993 0.00842729 0.00988966
0.00859196 0.0101043 0.00839448
0.00604509 0.0100742 0.00823952
0.00576558 0.00857473 0.00992328
0.0143684 0.00866035 0.0056323
0.00452034 0.0068944 0.00309253
0 0.00748929 0.00137438
0.00196833 0.00751499 -2.51561e-05
0 0.00287343 0.00335182
0 0.00580816 0.00831736
0 0.00429792 0.00253898
0.00364329 0.00434517 -4.44604e-05
0.00205511 0.00584565 0.00997378
0.00743905 0.0065693 0.00630586
0.00517432 0.00657788 0.00816712
0.00998551 0.00275383 0.00986859
0.0115302 0.0021049 0.00788713
0.0100186 0.000128414 0.00295937
0.00865145 0.00177566 0.003506
0.0143644 0.00305626 0.00317816
0 0.00140616 0.00256446
0.00915931 0.00834054 0.00630479
0.00836417 0.0015438 -9.92818e-05
0.00867761 0.00366288 0.00149806
0.00452702 0.0100558 0.00576668
0.0123051 0.010149 0.00567718
0.00368002 0.00145403 -4.47845e-05
0.00858928 0.00011086 0.00138994
0.00902853 0.00839928 0.00350475
0.0122969 0.000156318 0.00567855
0.00891688 0.00178725 0.00625285
0.00201251 0.0025896 0.00997431
0.0102357 0.00730852 -0.00012221
0.00742595 0.00778301 0.00207668
0.00854398 0.00620097 0.00149787
0 0.00686719 0.00578184
0.0143668 0.0015935 0.00239385
0.0025442 0.00364301 0.00637547
0.0143723 0.00865536 0.00245095
0.0120921 0.00633865 0.00398372
0.00859727 0.0101051 0.00138815
0.0100142 0.000128141 0.00680018
0.0143627 0.00162171 0.0056378
0.0120681 0.0037251 0.00590846
0.0021596 2.72013e-05 0.00578795
0 0.0013659 0.00748679
0.00195997 2.4752e-05 0.00750451
0.0143658 0.00704172 0.00559849
0.00836334 0.00859537 -0.000100771
0 0.0075208 0.00859127
0.00195542 0.00751152 0.00997508
0.00607672 0.0082816 0.00355079
0.0123533 0.0101481 0.00735275
0.0143705 0.00879836 0.00733808
0.00829128 0.00169292 0.00989087
0.0104302 0.00431868 0.00986238
0 0.0057735 0.00666667
0.00196103 0.0100251 0.00750359
0 0.00863025 0.00752641
0.0123465 0.000158421 0.00235795
0.0143684 0.00712919 0.00245676
0.0121633 0.00649198 0.00201634
0.0122315 0.00597462 0.00983962
0.010761 0.00151149 0.00985886
0.0123449 0.000158011 0.00735468
0.0143642 0.00155214 0.00730009
0 0.00143551 0.00581971
0.00858372 0.000110243 0.00839557
0.00604914 7.8219e-05 0.00332439
0.0114086 0.00485111 0.00189718
0.0143659 0.00447805 0.00236839
0.00607024 0.0100744 0.00658849
0.00406636 0.01005 0.00277927
0.00188032 2.39506e-05 0.00239428
0 0.00727418 0.00419576
0.0143644 0.0059501 0.0064812
0.010027 0.0101218 0.00295736
0.010791 0.00876718 0.00985754
0 0.00574334 0.00336387
0 0.0043297 0.00416652
0.00986971 0.00590641 0.00986987
0.0143624 0.00320439 0.00673107
0.0060642 7.82964e-05 0.00659019
0.00355259 0.0100439 0.00856538
0.0107645 0.00150486 -0.000126942
0.00829345 0.00676957 0.00989033
0.0143694 0.00769286 0.00839934
0.0123761 0.00770331 0.00983711
0.00994206 0.00314955 -0.000117507
0.00483047 0.00580576 -5.84094e-05
0.0108286 0.00876314 -0.000128678
0.0108108 0.0101309 0.00125629
0.00831362 0.00697116 -9.9733e-05
0.0100271 0.00649606 0.00290994
0.0108025 0.000139654 0.00125748
0.004136 0.00505086 0.00994545
0.00621537 0.00591135 0.00991766
0.00621393 0.00424458 0.00991785
0.0108064 0.0101295 0.00847564
0.00354899 4.56527e-05 0.00856667
0.0143658 0.00592082 0.00319025
0 0.00302218 0.00691532
0.0143642 0.0041985 0.0083107
0.0122278 0.00417263 -0.000143268
0.0143685 0.00289254 0.0013761
0 0.00244495 0.00857025
0.00350609 0.008614 0.00995374
0.0107977 0.000138869 0.00847709
0.0121988 0.00277771 0.00983996
0.0127214 0.00435306 0.00983251
0.0081488 0.0100993 0.00572954
0.00745095 0.00767647 0.00493821
0.00811011 0.0100987 0.00411264
0.0100224 0.0101216 0.00679871
0.00433514 0.00697029 0.00994269
0.00598565 0.00440701 -7.16483e-05
0.00406688 5.24294e-05 0.0043536
0.00452266 5.85876e-05 0.00576888
0.0143701 0.00437626 0.000960655
0.00522487 0.00840331 0.00152289
0.0143639 0.0045092 0.00399021
0.00958645 0.00589344 -0.000114448
0.012355 0.0101491 0.00235646
0 0.00848692 0.00262374
0.00193556 0.0100251 0.00403471
0 0.00885053 0.00419359
0.00602738 0.00892566 -7.31852e-05
0.00604157 0.010074 0.00161218
0.00718231 0.00488324 0.00229037
0.0103811 0.00465288 -0.00012281
0.00810218 0.000104224 0.00411518
0.00814132 0.00010477 0.00573153
0.00188035 0.0100241 0.00239331
0.0123249 0.002603 -0.000144711
0.0143629 0.00470124 0.00703332
0.0102293 0.0101243 0.0048713
0.0082475 0.00346805 0.00989105
0.0035261 4.61075e-05 0.00131245
0.0143651 0.00262904 0.00837851
0.00343448 0.00483516 0.00495618
0.00838505 0.00443707 -9.95979e-05
0.0119639 0.00595631 -0.00014027
0.00787295 0.010096 0.00711915
0.0143624 0.00450953 0.0056517
0.00776636 0.0100948 0.00267848
0.0102211 0.000130698 0.00487296
0.00406984 0.0100502 0.00435152
0 0.00452174 0.00721958
0.00649117 0.00730079 0.00991386
0.00786548 0.000101234 0.00712028
0.00517213 0.00514023 0.00353059
0.0061067 0.0100745 0.00492985
0.00610053 7.90227e-05 0.00493242
0.00526812 0.00528383 0.00610796
0 0.005744 0.00499998
0 0.00433013 0.00583333
0.00718643 0.00583554 -8.60033e-05
0.00716165 0.00642977 0.00346387
0.00775874 9.99892e-05 0.00268041
0.0143643 0.00592016 0.00482039
0.00529751 0.00647568 0.00477657
0.00824943 0.005103 0.00989095
0.0143701 0.0059509 0.00142068
0 0.00666667 0
0.0123598 0.00767179 -0.000145041
0.00478566 6.27244e-05 -5.7567e-05
0 0.01 0.00666667
0.00718367 0.0100868 0.00990508
0 0.00288419 0.00499914
0.0143729 0.00766265 0.00120823
0.0143763 0.00684108 -0.000163668
0 0.005 0.01
0.00718334 0.00297691 -8.55561e-05
0 0.005 0
0.0143699 0.000190794 0.00316067
0.0143777 0.0101634 0.00648028
0.00602927 0.00735044 -7.28122e-05
0.0143628 0.00306721 0.00482031
0.00718399 9.39398e-05 -8.59753e-05
0 0 0.00666667
0.00545191 0.00368634 0.00515737
0.00717711 9.22229e-05 0.00990622
0.0143679 0.000190249 0.00648248
0 0 0.005
0.0126336 0.0101512 0.00107025
0.0143777 0.00894817 0.00105454
0.0143681 0.000190214 0.00482103
0.014375 0.00517919 -0.000162505
0.00174772 0.00124253 -2.21297e-05
0 0.00122008 0.00122008
0 0.00333333 0.01
0 0.00666667 0.01
0.0126332 0.0089321 -0.000148213
0.0143793 0.010163 0.00315816
0.00605479 0.010074 0.00332215
0.0143733 0.00684056 0.00980314
0 0.00333333 0
0 0.00122008 0.00877992
0.00174588 2.20645e-05 0.00875825
0.00174572 0.00124208 0.00997771
0.0126284 0.0101498 0.00861409
0.00174671 0.00880202 0.00997759
0 0.00877992 0.00877992
0.0143736 0.00894684 0.00858769
0.0095919 0.0101162 -0.0001159
0.0143712 0.00140872 0.0010546
0.00174718 0.0100221 0.0087576
0.0126273 0.00893 0.00983289
0.0143717 0.00517776 0.00980374
0 0 0.00333333
0.00958314 0.00012469 -0.000113922
0.0126244 0.000163795 0.00107067
0.00173538 2.22763e-05 0.0011898
0 0.00877992 0.00122008
0.00174704 0.00880265 -2.23945e-05
0.0017352 0.0100221 0.00118889
0.0143671 0.00140723 0.00858844
0.0126209 0.00138237 0.00983397
0.00957543 0.000123087 0.00987475
0.0126269 0.00138419 -0.000147735
0.0126198 0.000162612 0.00861566
0.0143747 0.00351653 -0.000162209
0.00478475 0.010058 0.0099366
0.00352807 0.0100436 0.00131132
0.00958415 0.010115 0.00987374
0.0143702 0.0035145 0.00980357
0 0.01 0.005
0.00376605 0.00853481 -4.62644e-05
0.0143776 0.0101631 0.00482058
0 0.01 0.00333333
0 0.00166667 0
0.0143734 0.000190661 0.00149953
0 0.00166667 0.01
0 0.00833333 0
0.0143807 0.00850395 -0.000164283
0.0143697 0.000189871 0.00814433
0.014383 0.0101649 0.00149932
0.0143793 0.0101636 0.00814263
0.00238861 0.0100292 0.00996899
0 0.01 0.00833333
0.0119942 0.0101435 -0.000142162
0.0119849 0.000156598 -0.000141288
0.0119785 0.000154729 0.00984326
0.0119873 0.0101417 0.009842
0 0 0.00833333
0.0143768 0.00850094 0.00980409
0.00238914 3.14666e-05 -2.97086e-05
0 0 0.00166667
0.00478919 0.010059 -5.86902e-05
0.014371 0.0018533 0.00980482
0.0143759 0.00185537 -0.000163032
0.00238604 3.05333e-05 0.00996961
0.00238947 0.0100299 -3.02808e-05
0 0.01 0.00166667
0.0143825 0.0101653 0.00980549
0 0 0.01
0.0143878 0.0101658 -0.000165571
0.0143734 0.000188691 0.0098074
0 0.01 0.01
0.0143788 0.000190392 -0.00016461
0 0.01 0
0 0 0
0.00719039 0.0100877 -8.76599e-05
0.00478022 6.14841e-05 0.00993732
0 0.00833333 0.01

CELLS 343 686
1 0
1 1
1 2
1 3
1 4
1 5
1 6
1 7
1 8
1 9
1 10
1 11
1 12
1 13
1 14
1 15
1 16
1 17
1 18
1 19
1 20
1 21
1 22
1 23
1 24
1 25
1 26
1 27
1 28
1 29
1 30
1 31
1 32
1 33
1 34
1 35
1 36
1 37
1 38
1 39
1 40
1 41
1 42
1 43
1 44
1 45
1 46
1 47
1 48
1 49
1 50
1 51
1 52
1 53
1 54
1 55
1 56
1 57
1 58
1 59
1 60
1 61
1 62
1 63
1 64
1 65
1 66
1 67
1 68
1 69
1 70
1 71
1 72
1 73
1 74
1 75
1 76
1 77
1 78
1 79
1 80
1 81
1 82
1 83
1 84
1 85
1 86
1 87
1 88
1 89
1 90
1 91
1 92
1 93
1 94
1 95
1 96
1 97
1 98
1 99
1 100
1 101
1 102
1 103
1 104
1 105
1 106
1 107
1 108
1 109
1 110
1 111
1 112
1 113
1 114
1 115
1 116
1 117
1 118
1 119
1 120
1 121
1 122
1 123
1 124
1 125
1 126
1 127
1 128
1 129
1 130
1 131
1 132
1 133
1 134
1 135
1 136
1 137
1 138
1 139
1 140
1 141
1 142
1 143
1 144
1 145
1 146
1 147
1 148
1 149
1 150
1 151
1 152
1 153
1 154
1 155
1 156
1 157
1 158
1 159
1 160
1 161
1 162
1 163
1 164
1 165
1 166
1 167
1 168
1 169
1 170
1 171
1 172
1 173
1 174
1 175
1 176
1 177
1 178
1 179
1 180
1 181
1 182
1 183
1 184
1 185
1 186
1 187
1 188
1 189
1 190
1 191
1 192
1 193
1 194
1 195
1 196
1 197
1 198
1 199
1 200
1 201
1 202
1 203
1 204
1 205
1 206
1 207
1 208
1 209
1 210
1 211
1 212
1 213
1 214
1 215
1 216
1 217
1 218
1 219
1 220
1 221
1 222
1 223
1 224
1 225
1 226
1 227
1 228
1 229
1 230
1 231
1 232
1 233
1 234
1 235
1 236
1 237
1 238
1 239
1 240
1 241
1 242
1 243
1 244
1 245
1 246
1 247
1 248
1 249
1 250
1 251
1 252
1 253
1 254
1 255
1 256
1 257
1 258
1 259
1 260
1 261
1 262
1 263
1 264
1 265
1 266
1 267
1 268
1 269
1 270
1 271
1 272
1 273
1 274
1 275
1 276
1 277
1 278
1 279
1 280
1 281
1 282
1 283
1 284
1 285
1 286
1 287
1 288
1 289
1 290
1 291
1 292
1 293
1 294
1 295
1 296
1 297
1 298
1 299
1 300
1 301
1 302
1 303
1 304
1 305
1 306
1 307
1 308
1 309
1 310
1 311
1 312
1 313
1 314
1 315
1 316
1 317
1 318
1 319
1 320
1 321
1 322
1 323
1 324
1 325
1 326
1 327
1 328
1 329
1 330
1 331
1 332
1 333
1 334
1 335
1 336
1 337
1 338
1 339
1 340
1 341
1 342

CELL_TYPES 343
1
1
1
1
1
1
1
1
1
1
1
1
1
1
1
1
1
1
1
1
1
1
1
1
1
1
1
1
1
1
1
1
1
1
1
1
1
1
1
1
1
1
1
1
1
1
1
1
1
1
1
1
1
1
1
1
1
1
1
1
1
1
1
1
1
1
1
1
1
1
1
1
1
1
1
1
1
1
1
1
1
1
1
1
1
1
1
1
1
1
1
1
1
1
1
1
1
1
1
1
1
1
1
1
1
1
1
1
1
1
1
1
1
1
1
1
1
1
1
1
1
1
1
1
1
1
1
1
1
1
1
1
1
1
1
1
1
1
1
1
1
1
1
1
1
1
1
1
1
1
1
1
1
1
1
1
1
1
1
1
1
1
1
1
1
1
1
1
1
1
1
1
1
1
1
1
1
1
1
1
1
1
1
1
1
1
1
1
1
1
1
1
1
1
1
1
1
1
1
1
1
1
1
1
1
1
1
1
1
1
1
1
1
1
1
1
1
1
1
1
1
1
1
1
1
1
1
1
1
1
1
1
1
1
1
1
1
1
1
1
1
1
1
1
1
1
1
1
1
1
1
1
1
1
1
1
1
1
1
1
1
1
1
1
1
1
1
1
1
1
1
1
1
1
1
1
1
1
1
1
1
1
1
1
1
1
1
1
1
1
1
1
1
1
1
1
1
1
1
1
1
1
1
1
1
1
1
1
1
1
1
1
1
1
1
1
1
1
1
1
1
1
1
1
1
1
1
1
1
1
1
1
1
1
1
1
1
1
1
1
1
1
1

POINT_DATA 343
FIELD FieldData 8

NodeID_(#) 1 343 int
0
1
2
3
4
5
6
7
8
9
10
11
12
13
14
15
16
17
18
19
20
21
22
23
24
25
26
27
28
29
30
31
32
33
34
35
36
37
38
39
40
41
42
43
44
45
46
47
48
49
50
51
52
53
54
55
56
57
58
59
60
61
62
63
64
65
66
67
68
69
70
71
72
73
74
75
76
77
78
79
80
81
82
83
84
85
86
87
88
89
90
91
92
93
94
95
96
97
98
99
100
101
102
103
104
105
106
107
108
109
110
111
112
113
114
115
116
117
118
119
120
121
122
123
124
125
126
127
128
129
130
131
132
133
134
135
136
137
138
139
140
141
142
143
144
145
146
147
148
149
150
151
152
153
154
155
156
157
158
159
160
161
162
163
164
165
166
167
168
169
170
171
172
173
174
175
176
177
178
179
180
181
182
183
184
185
186
187
188
189
190
191
192
193
194
195
196
197
198
199
200
201
202
203
204
205
206
207
208
209
210
211
212
213
214
215
216
217
218
219
220
221
222
223
224
225
226
227
228
229
230
231
232
233
234
235
236
237
238
239
240
241
242
243
244
245
246
247
248
249
250
251
252
253
254
255
256
257
258
259
260
261
262
263
264
265
266
267
268
269
270
271
272
273
274
275
276
277
278
279
280
281
282
283
284
285
286
287
288
289
290
291
292
293
294
295
296
297
298
299
300
301
302
303
304
305
306
307
308
309
310
311
312
313
314
315
316
317
318
319
320
321
322
323
324
325
326
327
328
329
330
331
332
333
334
335
336
337
338
339
340
341
342

Component_(#) 1 343 int
0
0
0
0
0
0
0
0
0
0
0
0
0
0
0
0
0
0
0
0
0
0
0
0
0
0
0
0
0
0
0
0
0
0
0
0
0
0
0
0
0
0
0
0
0
0
0
0
0
0
0
0
0
0
0
0
0
0
0
0
0
0
0
0
0
0
0
0
0
0
0
0
0
0
0
0
0
0
0
0
0
0
0
0
0
0
0
0
0
0
0
0
0
0
0
0
0
0
0
0
0
0
0
0
0
0
0
0
0
0
0
0
0
0
0
0
0
0
0
0
0
0
0
0
0
0
0
0
0
0
0
0
0
0
0
0
0
0
0
0
0
0
0
0
0
0
0
0
0
0
0
0
0
0
0
0
0
0
0
0
0
0
0
0
0
0
0
0
0
0
0
0
0
0
0
0
0
0
0
0
0
0
0
0
0
0
0
0
0
0
0
0
0
0
0
0
0
0
0
0
0
0
0
0
0
0
0
0
0
0
0
0
0
0
0
0
0
0
0
0
0
0
0
0
0
0
0
0
0
0
0
0
0
0
0
0
0
0
0
0
0
0
0
0
0
0
0
0
0
0
0
0
0
0
0
0
0
0
0
0
0
0
0
0
0
0
0
0
0
0
0
0
0
0
0
0
0
0
0
0
0
0
0
0
0
0
0
0
0
0
0
0
0
0
0
0
0
0
0
0
0
0
0
0
0
0
0
0
0
0
0
0
0
0
0
0
0
0
0
0
0
0
0
0
0
0
0
0
0
0
0
0
0
0
0
0
0
0
0
0
0
0
0

NodalMass_(kg) 1 343 double
3.15563e-06
1.41304e-05
2.20912e-06
1.71484e-05
8.42e-06
9.09306e-06
1.01179e-05
7.52198e-06
6.81096e-06
5.58223e-06
3.10888e-06
1.07575e-05
4.87011e-06
1.64955e-05
3.0246e-06
8.05984e-06
6.703e-06
1.0877e-05
4.18978e-06
8.16106e-06
6.14143e-06
1.17902e-05
2.23114e-06
4.25176e-06
1.09915e-05
7.41467e-06
4.21871e-06
3.92484e-06
3.08766e-06
1.31268e-05
7.72627e-06
1.65404e-05
1.19037e-05
7.97564e-06
3.81683e-06
1.11001e-05
3.81317e-06
1.39137e-05
6.37414e-06
8.00975e-06
7.6712e-06
1.21135e-05
1.6399e-05
2.78633e-06
8.93599e-06
2.58087e-06
7.57362e-06
4.23241e-06
1.31286e-05
3.80168e-06
2.7746e-06
7.16776e-06
1.21307e-05
5.11765e-06
8.19728e-06
4.58094e-06
2.79503e-06
3.26126e-06
4.12443e-06
2.11915e-06
3.35177e-06
3.61669e-06
1.56838e-05
7.33679e-06
8.24695e-06
5.00369e-06
2.82625e-06
7.20276e-06
3.26815e-06
4.18751e-06
2.02785e-06
2.42152e-06
3.11835e-06
5.97459e-06
5.87101e-06
4.09374e-06
5.45463e-06
2.28825e-06
4.49759e-06
4.38192e-06
4.50892e-06
4.39234e-06
4.27273e-06
5.32031e-06
1.53201e-06
2.38869e-06
2.02885e-06
4.38798e-06
3.17972e-06
3.14298e-06
4.61567e-06
5.87645e-06
8.18088e-06
2.48341e-06
1.53815e-05
3.49683e-06
7.35227e-06
2.01314e-06
2.0408e-06
7.98183e-06
4.41293e-06
7.1389e-06
1.20123e-06
5.03343e-06
1.61257e-06
4.12601e-06
8.73748e-06
4.37849e-06
7.97173e-06
2.13557e-06
3.38137e-06
9.48623e-06
7.40262e-06
1.80226e-06
2.10222e-06
7.98889e-06
1.87983e-06
7.44814e-06
4.19782e-06
2.37156e-06
4.31705e-06
6.06441e-06
4.30905e-06
2.16843e-06
1.8986e-06
1.81294e-06
3.89762e-06
2.44299e-06
1.65628e-06
8.01374e-06
1.64513e-06
2.3931e-06
3.01363e-06
2.99431e-06
1.36541e-06
1.87293e-06
2.09622e-06
1.94762e-06
1.87618e-06
6.37913e-06
4.58628e-06
2.02767e-06
1.61999e-06
2.41284e-06
3.8865e-06
4.44973e-06
2.29839e-06
1.17349e-05
3.11811e-06
1.354e-06
3.45063e-06
1.81846e-06
2.9382e-06
1.37381e-06
2.41464e-06
2.10451e-06
2.63927e-06
2.14166e-06
1.7943e-06
3.19976e-06
1.36989e-06
2.43489e-06
2.08158e-06
1.3601e-06
2.17203e-06
1.89924e-06
3.16996e-06
2.6119e-06
2.37677e-06
1.60225e-06
1.90684e-06
5.49206e-06
1.87878e-06
3.14313e-06
2.97301e-06
1.18454e-06
1.89263e-06
2.04166e-06
2.73572e-06
2.42405e-06
3.23083e-06
3.19752e-06
3.2142e-06
1.94492e-06
1.61196e-06
1.86876e-06
3.22435e-06
2.1114e-06
2.96917e-06
6.15288e-06
2.3097e-06
2.39729e-06
2.38029e-06
2.64508e-06
1.66557e-06
1.82377e-06
2.06583e-06
5.73271e-06
2.08467e-06
2.18324e-06
2.43522e-06
3.1188e-06
3.17316e-06
2.05447e-06
1.9592e-06
3.05718e-06
6.44327e-06
2.08796e-06
2.72615e-06
2.15709e-06
1.86812e-06
2.0028e-06
2.10999e-06
2.88994e-06
2.3222e-06
2.3979e-06
1.97629e-06
6.4127e-06
2.16225e-06
3.29198e-06
2.10223e-06
2.66566e-06
1.94415e-06
2.91865e-06
2.58116e-06
2.11703e-06
2.09534e-06
1.91719e-06
7.06046e-06
2.25203e-06
2.06378e-06
6.28159e-06
2.12147e-06
2.90924e-06
2.12921e-06
6.4487e-06
1.41701e-06
2.0682e-06
6.58062e-06
2.52584e-06
2.39732e-06
7.42191e-07
2.22368e-06
7.06751e-07
7.00657e-07
8.93749e-07
2.53536e-06
2.26535e-06
1.33607e-06
7.84725e-07
2.32303e-06
6.06694e-07
6.68276e-07
6.84307e-07
2.51242e-06
2.31629e-06
7.8367e-07
6.80839e-07
6.22692e-06
6.7471e-07
6.65305e-07
7.01158e-07
1.8232e-06
1.90695e-06
6.86722e-07
7.04792e-07
1.86445e-06
2.28572e-06
6.8045e-07
7.16005e-07
1.82373e-06
6.01079e-07
2.02791e-06
7.4579e-07
5.74423e-07
1.80052e-06
1.454e-06
2.2702e-06
1.80636e-06
2.15356e-06
1.79089e-06
1.79456e-06
6.8231e-07
2.24737e-06
1.45239e-06
1.79556e-06
6.97875e-07
6.24265e-07
6.62717e-07
1.44627e-06
1.40138e-06
2.15258e-06
1.82851e-06
1.3994e-06
1.43932e-06
2.19226e-06
6.97732e-07
1.77726e-06
1.79162e-06
6.54258e-07
7.3397e-07
2.34895e-06
7.10392e-07
6.56982e-07
6.26314e-07
2.18926e-06
6.12493e-07
6.03901e-07
5.92831e-07
5.12031e-07
5.11667e-07
4.9467e-07
4.97016e-07
4.96269e-07
5.33079e-07
4.94191e-07
4.97855e-07
4.86862e-07
4.90626e-07
4.94649e-07
4.94954e-07
4.91922e-07
4.89615e-07
4.96354e-07
4.95189e-07
4.82188e-07
1.10854e-06
5.3299e-07
5.44763e-07
5.36655e-07
5.15417e-07
5.01772e-07
5.53774e-07
5.53774e-07
5.53774e-07
5.53774e-07
5.53774e-07
5.53774e-07
5.50785e-07
5.50785e-07
7.45291e-07
7.11668e-07
4.9897e-07

NodalForce_(N) 3 343 double
-1.14549e-08 1.05366e-08 -6.5414e-10
-1.47286e-07 1.34964e-07 -4.49915e-08
0.000291593 2.99066e-05 0.000584263
1.74522e-07 1.58097e-07 -5.29724e-08
4.29177e-07 7.16107e-07 -1.58461e-07
2.31948e-07 6.68129e-07 -1.45222e-07
-4.41134e-08 1.62508e-06 -3.60841e-07
-8.77967e-08 8.04398e-07 -2.07654e-07
3.01837e-07 9.35705e-07 -1.78456e-07
-3.45156e-08 3.61229e-07 -9.37851e-08
2.32043e-07 2.0963e-07 -1.93114e-08
7.48601e-07 9.8661e-07 -1.50437e-07
4.53692e-07 3.47857e-07 -3.21285e-08
3.53466e-07 1.31775e-07 -5.65625e-08
1.54688e-07 1.76149e-07 -2.23598e-08
-3.19878e-07 1.01954e-06 -2.01996e-07
-2.58961e-07 7.29931e-07 -1.6896e-07
1.94725e-07 1.33757e-07 -3.61505e-08
0.000783565 0.000634927 0.000333145
3.11636e-08 3.37262e-08 -3.51093e-09
1.77677e-07 8.651e-07 -2.08754e-07
7.87879e-07 2.14916e-06 -4.41666e-07
0.0017528 -0.00038797 0.000354229
1.5165e-07 2.97532e-07 -5.5691e-08
4.48159e-07 9.51514e-07 -2.72008e-07
1.73097e-08 3.31394e-07 -1.1562e-07
8.99423e-08 1.61418e-08 -7.65193e-09
2.75543e-07 2.87026e-07 -7.69723e-08
-1.10524e-07 4.81524e-08 -1.27966e-08
-3.55412e-07 8.13912e-08 -3.98704e-08
-3.02483e-07 2.92755e-07 -1.18103e-07
-1.37114e-06 2.77369e-06 -5.00883e-07
1.03064e-07 2.0524e-06 -3.64054e-07
-3.14054e-07 1.49725e-06 -3.03031e-07
-5.02975e-07 9.74189e-07 -1.97825e-07
-9.62513e-07 1.69656e-06 -3.67474e-07
-6.16533e-07 7.54436e-07 -1.5147e-07
-1.58191e-06 2.38411e-06 -5.74956e-07
1.70968e-07 2.2063e-07 -4.5113e-08
2.38692e-07 4.17938e-07 -8.646e-08
4.26094e-07 4.11493e-07 -7.70304e-08
-6.03872e-07 8.01951e-07 -1.57434e-07
-2.44817e-07 1.23526e-07 -6.4544e-09
-1.54229e-07 6.34201e-08 -4.96455e-09
-4.90929e-07 3.7682e-07 -6.94948e-08
0.00105794 -2.13575e-06 -0.000351268
-7.24046e-08 4.85925e-08 -1.46084e-08
0.000386448 0.000597312 -0.00046852
-1.2802e-08 1.3542e-07 -3.18628e-08
1.64675e-08 1.80607e-08 1.30568e-09
-1.27003e-07 3.75683e-07 -5.45845e-08
-1.30088e-07 6.95071e-07 -1.29165e-07
-2.44714e-07 7.90908e-08 -2.46969e-08
-1.00327e-07 9.35122e-08 -1.93757e-08
-4.3288e-08 4.24255e-08 -1.059e-08
-9.87629e-08 1.17143e-06 -1.99028e-07
0.000816332 -0.000246743 3.53284e-05
-4.67757e-08 1.98878e-08 -1.05223e-09
0.00192343 -0.000593552 0.000674773
-1.44187e-07 5.37046e-07 -9.89029e-08
7.06007e-08 7.36082e-08 -1.26545e-08
3.13974e-07 1.02029e-06 -2.03527e-07
9.36776e-07 3.11208e-06 -7.32511e-07
1.86103e-07 1.46707e-06 -3.22895e-07
3.9252e-07 4.19329e-07 -9.56149e-08
-1.24241e-07 6.73014e-09 -1.23042e-09
1.87333e-07 9.36432e-08 -1.45296e-08
1.906e-07 7.37661e-07 -1.32057e-07
-2.8048e-07 8.32144e-07 -1.73188e-07
5.37161e-07 9.58942e-07 -1.96713e-07
5.12401e-09 6.79143e-08 -1.61096e-08
1.02233e-07 6.27005e-08 -7.11543e-09
1.76096e-07 1.13016e-07 -2.07963e-08
1.28917e-08 3.3953e-07 -7.59569e-08
6.91237e-08 1.50273e-07 -4.53761e-08
0.00135495 -0.000297761 -0.000493843
8.60307e-08 3.64919e-07 -1.0307e-07
2.50194e-09 7.78242e-09 8.19043e-11
-2.80457e-07 4.18127e-07 -5.16475e-08
-4.76996e-07 4.44374e-07 -7.96962e-08
-3.36911e-07 2.39885e-07 -4.1698e-08
-1.91374e-07 2.13538e-07 -1.27876e-08
-4.82037e-07 1.08226e-06 -2.07634e-07
-1.49922e-07 1.13342e-07 -4.32656e-08
0.00120162 0.000334889 0.000222558
-4.60139e-08 2.94197e-09 8.71389e-10
0.00121288 -0.000143841 -0.000277471
0.00182513 -0.000240388 -0.000496821
0.00104757 0.00079429 -0.000565648
-4.66941e-08 5.20768e-08 -1.33123e-08
-4.31611e-09 1.60609e-08 1.56992e-09
-1.86758e-07 3.98873e-07 -8.89191e-08
-1.10642e-07 2.10235e-07 -4.74618e-08
1.8614e-07 3.62158e-07 -4.99885e-08
1.39238e-06 2.9672e-06 -4.73548e-07
3.92379e-07 5.8221e-07 -1.33209e-07
4.90441e-07 8.91876e-07 -2.16943e-07
8.15318e-08 5.48502e-07 -1.15946e-07
0.00178977 0.00080741 -5.04058e-05
-6.43519e-07 8.83178e-07 -1.67978e-07
2.37306e-07 5.33536e-07 -1.17545e-07
8.66851e-08 7.87714e-07 -2.1697e-07
-7.52961e-08 3.68538e-08 -7.70572e-09
-7.6845e-07 9.8829e-07 -1.86071e-07
3.12834e-08 4.64518e-08 -8.14973e-09
3.96457e-07 5.37319e-07 -1.38954e-07
-8.35683e-07 9.56459e-07 -2.34642e-07
5.95925e-07 9.9501e-07 -1.82693e-07
6.38961e-07 9.96588e-07 -1.76843e-07
2.66316e-08 4.69529e-09 -1.87839e-10
-3.26803e-07 4.69306e-07 -1.11248e-07
-7.42733e-07 7.00957e-07 -1.99431e-07
-3.88483e-07 6.87863e-07 -2.02042e-07
0.000663695 0.000382591 -0.000460567
1.67597e-07 5.97359e-07 -1.25704e-07
5.526e-08 4.83414e-08 -1.85176e-08
-2.43457e-07 4.81557e-07 -1.03118e-07
-3.82921e-07 1.41629e-06 -3.13857e-07
-6.05055e-07 4.50247e-07 -1.05033e-07
3.12009e-07 3.90951e-07 -6.097e-08
4.10739e-07 1.21092e-06 -2.23672e-07
2.13057e-07 1.20244e-06 -2.37258e-07
1.02474e-07 2.43278e-08 -6.11391e-09
0.00146221 0.000185951 0.000401541
4.24479e-08 1.04704e-08 -5.51294e-10
-1.19098e-07 4.6078e-07 -8.90081e-08
-4.50032e-07 3.79101e-07 -8.94189e-08
0.0016676 0.000458172 -0.000780758
-9.96683e-09 4.25652e-09 1.20065e-09
-5.26606e-07 3.9908e-07 -9.56995e-08
-2.37371e-07 3.25876e-07 -5.71571e-08
-2.59638e-07 6.02153e-07 -1.05826e-07
2.7856e-07 3.38701e-07 -4.01905e-08
1.05128e-07 4.35265e-07 -6.51391e-08
0.0011649 -0.000189684 0.000418539
-3.69388e-08 3.74709e-09 -2.1474e-09
0.00145751 -0.000342249 0.000397593
2.33994e-07 4.548e-07 -1.01668e-07
-1.58243e-07 4.81314e-07 -1.0465e-07
-4.25363e-07 1.23597e-06 -2.90407e-07
-5.67571e-08 8.76573e-07 -1.32799e-07
2.23098e-07 3.61023e-07 -4.53964e-08
2.35127e-07 3.73408e-07 -5.56251e-08
2.55862e-07 6.76516e-07 -1.13087e-07
0.00104871 0.000559867 -0.000754978
5.66654e-07 5.65236e-07 -6.78425e-08
1.89409e-07 1.71951e-07 -3.72168e-08
-2.17859e-07 2.07493e-06 -5.04437e-07
-1.74082e-08 8.28101e-07 -1.77879e-07
-1.15782e-07 7.53434e-08 -1.05093e-08
-2.35358e-07 7.73377e-08 -1.72137e-08
3.23733e-08 8.20367e-09 -4.16904e-09
0.00231362 0.000717892 -2.16451e-05
-3.90166e-08 3.52939e-07 -6.52829e-08
-3.60831e-07 3.39206e-07 -7.49069e-08
-1.80284e-07 3.22032e-07 -4.66337e-08
0.00151561 0.000106347 -0.000676163
0.000924227 0.000835373 0.00179375
-1.46087e-08 2.22577e-07 -3.55629e-08
1.74624e-07 8.61231e-07 -1.54078e-07
1.27546e-07 1.00687e-07 -1.39778e-08
-1.09661e-07 4.62025e-08 -5.86584e-09
1.30947e-07 3.81837e-07 -8.40753e-08
-3.35548e-08 1.17319e-07 -1.69249e-08
-1.53748e-07 5.47216e-07 -8.97127e-08
-1.1939e-07 3.65447e-07 -5.53076e-08
5.87021e-08 4.67736e-07 -1.12835e-07
-8.81325e-08 6.36215e-08 -2.28735e-08
-3.26621e-07 3.7326e-07 -8.45277e-08
-2.63581e-07 2.60566e-07 -5.84921e-08
-1.47438e-07 1.73797e-07 -4.41593e-08
-3.19038e-07 7.20268e-07 -1.87202e-07
2.01947e-07 3.59853e-07 -8.48922e-08
1.49178e-08 5.45256e-08 -1.0299e-08
7.92278e-10 1.26568e-07 -2.01708e-08
2.977e-08 5.54499e-08 -9.28911e-09
-2.42239e-07 2.99067e-07 -5.06649e-08
1.18453e-07 5.80976e-08 -4.69857e-09
-1.21301e-07 7.11485e-07 -1.51828e-07
0.00182441 -0.000120335 0.000264512
1.0736e-07 8.4736e-07 -1.3969e-07
-2.98859e-08 6.61748e-07 -1.495e-07
1.16409e-07 8.87343e-07 -1.92113e-07
0.00140253 -0.000201224 -0.000305736
-3.90979e-08 2.98031e-08 -5.59543e-10
2.66361e-07 3.52119e-07 -4.43017e-08
2.63006e-07 6.65568e-07 -9.20669e-08
7.6189e-08 4.48582e-07 -6.5562e-08
-3.33876e-07 2.82721e-07 -5.11398e-08
-3.68685e-07 4.45445e-07 -1.02133e-07
-2.78813e-07 2.20991e-07 -4.56008e-08
-3.1043e-07 3.29853e-07 -5.54566e-08
-2.84665e-08 3.66888e-08 -4.65823e-09
-4.69196e-08 1.22005e-07 -3.99391e-08
9.58586e-08 6.25786e-08 -1.39773e-08
1.27732e-07 7.78345e-08 -1.61779e-08
-1.98804e-08 5.54439e-07 -1.21366e-07
-3.72382e-07 2.23627e-07 -6.99087e-08
2.82894e-09 5.50352e-07 -1.15438e-07
-1.20534e-07 2.70708e-07 -6.86523e-08
-4.16324e-07 4.89207e-07 -1.04843e-07
0.00153292 -0.00032133 -9.37041e-05
-6.85865e-08 6.3844e-09 -5.72878e-10
0.00134193 -0.000623876 3.12497e-05
-1.81338e-07 1.08457e-07 -2.58836e-08
-3.27685e-07 1.75815e-07 -4.15686e-08
-9.22929e-08 4.15235e-07 -1.31692e-07
-4.71322e-08 3.15722e-07 -7.69277e-08
2.7961e-07 3.25521e-07 -7.26692e-08
2.38403e-07 2.56669e-07 -4.2579e-08
-4.53699e-08 4.07675e-09 8.07283e-11
7.24843e-08 4.37675e-07 -9.676e-08
2.47245e-08 5.50587e-07 -9.88751e-08
-4.10285e-07 4.15357e-07 -8.17336e-08
1.16021e-07 2.20699e-07 -3.13843e-08
1.06611e-07 6.84082e-08 -1.74517e-08
1.58467e-07 5.40132e-07 -8.68652e-08
-1.78132e-08 8.20697e-08 -2.82697e-08
-3.24854e-08 2.1485e-07 -5.94443e-08
-2.04461e-07 6.30775e-07 -1.42252e-07
-2.19821e-07 1.84691e-07 -3.20664e-08
2.76325e-08 7.00605e-07 -1.35907e-07
-2.44148e-07 1.74007e-07 -3.71027e-08
3.58019e-07 4.96891e-07 -9.87293e-08
-1.61812e-07 5.7339e-08 -1.16899e-08
0.00163938 0.000292642 0.000736222
-5.75239e-08 1.05348e-07 -1.31263e-08
2.18048e-07 2.12985e-07 -2.81158e-08
-7.17515e-08 2.13556e-07 -6.72985e-08
-2.11771e-07 1.27544e-07 -2.41307e-08
1.85834e-07 1.55919e-07 -3.18456e-08
-2.37819e-08 1.90653e-07 -5.19706e-08
0.00203007 -0.00142697 8.43278e-05
0.00189182 0.000714078 -0.00115764
-9.74436e-08 1.34082e-07 -4.30625e-08
-2.60623e-07 4.0541e-07 -1.24616e-07
1.33032e-07 1.58839e-07 -3.75213e-08
-7.46538e-08 5.34781e-07 -1.08025e-07
-1.54026e-07 1.99212e-07 -5.49579e-08
3.14858e-08 2.12731e-07 -3.39047e-08
-1.29822e-07 6.27581e-07 -1.37152e-07
0.000833067 0.000732935 1.83552e-05
-2.50206e-07 4.40863e-07 -9.67689e-08
3.58274e-08 4.07297e-08 -1.07622e-08
0.000899706 -1.9658e-05 -0.000978256
-7.35321e-08 6.89892e-08 -9.54904e-09
0.00207621 -0.00114868 0.000143284
-2.40917e-07 5.81101e-07 -1.27788e-07
-1.19e-07 3.47142e-07 -7.38155e-08
0.000785118 -0.00107183 0.000121149
3.57703e-08 1.86044e-07 -4.67765e-08
0.000745529 0.00119316 -6.66659e-05
8.36072e-08 1.95379e-07 -3.984e-08
-1.03847e-07 1.74592e-07 -3.10385e-08
-1.6399e-07 1.14233e-07 -3.41805e-08
1.139e-07 6.27003e-07 -1.24585e-07
5.78331e-08 8.23723e-08 -1.99175e-08
0.000657265 -0.000180014 0.000796636
1.02486e-07 2.28155e-07 -5.93226e-08
7.63296e-08 6.86227e-08 -3.5059e-09
9.45282e-08 1.92858e-07 -3.26021e-08
0.000414083 -0.000443464 0.00102969
-3.25578e-07 3.82817e-07 -8.227e-08
-2.77049e-07 4.92021e-07 -1.0558e-07
9.19215e-08 1.99467e-07 -3.76771e-08
-2.77728e-08 1.88066e-07 -4.00151e-08
1.22931e-08 1.31785e-08 2.30076e-10
0.000996446 0.000545481 3.71146e-05
0.000666717 -0.000986864 0.000183458
0.000713875 -0.000984863 0.000106146
-2.72721e-07 3.78897e-07 -7.99169e-08
-1.01835e-07 1.55163e-07 -3.14111e-08
-2.0341e-07 1.15461e-07 -2.21201e-08
-2.84165e-08 1.88259e-07 -2.96394e-08
0.000768537 0.00047927 0.000142205
0.000413596 0.000368911 -0.000520302
3.06761e-08 1.0386e-08 1.95131e-09
3.25335e-08 9.87334e-09 -1.30741e-09
-2.50686e-07 3.7282e-07 -6.32572e-08
-2.01398e-08 8.66462e-09 1.76689e-09
0.000626281 -0.000198066 -0.000302008
-1.92414e-07 4.53104e-07 -7.46596e-08
-1.10564e-07 9.05852e-08 -1.80336e-08
1.77427e-07 6.46558e-07 -1.38557e-07
-2.47661e-08 5.2211e-09 -4.28068e-09
-1.77485e-07 3.64931e-07 -5.59576e-08
8.13757e-09 1.80583e-07 -2.78714e-08