# vtk DataFile Version 4.2
vtk output
ASCII
DATASET UNSTRUCTURED_GRID

POINTS 343 double
0.00161177 0.00421625 -2.06228e-05
0.00311715 0.005024 0.00213531
0 0.00419538 0.00112517
0.00277475 0.00199111 0.00190663
0.00744682 0.00251103 0.00493976
0.00744344 0.003932 0.0063043
0.0109751 0.00492865 0.00486401
0.00896158 0.00497444 0.00358176
0.00984586 0.00342661 0.00679109
0.00717992 0.00509041 0.00491035
0.00601936 0.00120197 0.00992148
0.00760557 0.00218656 0.00780778
0.00603916 7.76098e-05 0.00824117
0.00289028 0.00204014 0.00799677
0.00616703 0.00261719 0.00991922
0.010005 0.00658399 0.00682156
0.00922663 0.00630911 0.00506895
0.00324943 0.00222767 0.00510491
0 0.00143586 0.00417514
0.00228979 0.00349617 0.00400775
0.0098525 0.00333283 0.00304188
0.0111645 0.00237345 0.00492668
0 0.00270918 0.00154168
0.00599754 0.00151354 -7.14169e-05
0.00721875 0.00228944 0.00210952
0.00570529 0.0036051 0.00153324
0.00193518 2.43898e-05 0.00403558
0.00603658 7.82396e-05 0.00161396
0.00377342 0.0070023 -4.59064e-05
0.00277823 0.00808951 0.00190893
0.00587844 0.00632749 0.00157285
0.0115061 0.00814227 0.00785154
0.011465 0.00497609 0.00787711
0.0120683 0.00624777 0.00579781
0.0143712 0.00901794 0.00401928
0.010897 0.00778479 0.00482946
0.0123147 0.0101487 0.00401685
0.0114769 0.00812884 0.00187839
0.00508557 0.00310484 0.00689583
0.00638262 0.00374818 0.00824223
0.00560553 0.00167841 0.00589893
0.00718918 0.00776455 0.0075855
0.00285086 0.00804541 0.00795353
0.00405202 0.0100501 0.00707558
0.00562171 0.00847413 0.00588669
0 0.00695361 0.00262895
0.00236177 0.00627045 0.00405763
0 0.0040177 0.00850214
0.00332171 0.00502915 0.00761954
0.00205541 0.00420081 0.00997391
0.0103142 0.00725792 0.00986527
0.0087968 0.00609036 0.00830516
0.00294165 0.00798033 0.0047041
0.00436904 0.00700133 0.00641286
0.00227615 0.00610831 0.0058969
0.0143647 0.00598397 0.00812927
0 0.00718191 0.00711644
0.00227385 0.00580396 -2.88376e-05
0 0.00577432 0.00158701
0.0143665 0.00735482 0.00693238
0.00411951 0.00340354 0.00994576
0.0143639 0.00162223 0.00400195
0.011591 0.00211052 0.00184119
0.0120852 0.00367385 0.00385146
0.00536714 0.00172269 0.00406078
0.00216026 0.0100277 0.00578717
0.00404801 5.23582e-05 0.00707723
0.00879224 0.00429241 0.0082637
0.0143672 0.00744899 0.00402209
0.0123055 0.000156153 0.0040183
0.00481333 0.002936 -5.77382e-05
0.00388271 0.001591 0.00994908
0.00406362 5.28119e-05 0.00278085
0.00689828 0.00528732 0.00746653
0.00454337 0.00320752 0.00310953
0 0.00849157 0.00581511
0.00700425 0.00376609 0.00369902
0.00220919 0.0027378 -2.79356e-05
0.00832911 0.00842718 0.00989059
0.00859144 0.0101042 0.00839544
0.00604473 0.0100742 0.00824002
0.00576498 0.00857467 0.00992378
0.0143684 0.00866011 0.0056344
0.00452051 0.00689441 0.0030927
0 0.00748929 0.00137438
0.00196851 0.007515 -2.514e-05
0 0.00287343 0.00335182
0 0.00580816 0.00831736
0 0.00429792 0.00253898
0.00364373 0.00434517 -4.43132e-05
0.00205493 0.00584565 0.00997382
0.00743887 0.00656925 0.00630645
0.00517397 0.00657786 0.00816747
0.00998448 0.00275365 0.00986981
0.0115295 0.00210468 0.00788859
0.0100189 0.000128246 0.00296039
0.00865167 0.00177554 0.00350676
0.0143648 0.00305599 0.0031802
0 0.00140616 0.00256446
0.00915912 0.00834043 0.00630569
0.00836501 0.00154368 -9.84848e-05
0.00867824 0.00366279 0.0014989
0.00452701 0.0100558 0.00576688
0.0123051 0.0101488 0.00567879
0.00368043 0.00145401 -4.46222e-05
0.00858983 0.000110733 0.00139077
0.00902892 0.0083992 0.0035056
0.0122966 0.000156067 0.00568012
0.00891655 0.00178711 0.00625369
0.00201236 0.0025896 0.00997434
0.0102368 0.00730843 -0.000121022
0.0074265 0.00778297 0.0020773
0.00854468 0.00620092 0.00149869
0 0.00686719 0.00578184
0.0143673 0.00159321 0.00239587
0.00254415 0.003643 0.00637552
0.014373 0.00865514 0.00245301
0.0120924 0.0063385 0.00398522
0.00859808 0.010105 0.00138901
0.0100137 0.000127943 0.00680125
0.0143625 0.0016214 0.00563987
0.0120679 0.00372492 0.00591
0.00215956 2.71948e-05 0.00578798
0 0.0013659 0.00748679
0.00195988 2.47339e-05 0.00750452
0.0143658 0.0070415 0.00560058
0.00836439 0.00859532 -9.99243e-05
0 0.0075208 0.00859127
0.00195525 0.0075115 0.00997513
0.00607697 0.00828158 0.00355111
0.0123529 0.0101479 0.00735442
0.0143701 0.00879812 0.00734023
0.00829031 0.00169278 0.00989177
0.0104292 0.00431853 0.0098637
0 0.0057735 0.00666667
0.00196097 0.0100251 0.00750361
0 0.00863025 0.00752641
0.012347 0.000158178 0.00235949
0.0143691 0.00712899 0.0024588
0.012164 0.00649184 0.00201786
0.0122305 0.00597443 0.00984132
0.0107599 0.00151128 0.00986024
0.0123442 0.000157739 0.00735629
0.0143636 0.00155181 0.00730219
0 0.00143551 0.00581971
0.00858297 0.000110077 0.00839646
0.00604927 7.8146e-05 0.00332473
0.0114093 0.00485096 0.00189853
0.0143666 0.0044778 0.00237041
0.00607011 0.0100743 0.00658888
0.00406658 0.01005 0.00277941
0.00188038 2.39597e-05 0.00239429
0 0.00727418 0.00419576
0.0143642 0.00594986 0.0064833
0.0100276 0.0101216 0.00295842
0.01079 0.008767 0.00985897
0 0.00574334 0.00336387
0 0.0043297 0.00416652
0.00986875 0.00590628 0.0098711
0.0143619 0.00320412 0.00673317
0.0060639 7.8199e-05 0.00659056
0.00355236 0.0100439 0.00856555
0.0107655 0.00150468 -0.000125681
0.00829261 0.00676949 0.00989127
0.0143687 0.00769261 0.00840151
0.0123751 0.0077031 0.00983886
0.00994305 0.00314942 -0.000116402
0.00483106 0.00580577 -5.8127e-05
0.0108298 0.00876303 -0.000127352
0.0108117 0.0101307 0.00125759
0.0083146 0.00697112 -9.88947e-05
0.0100276 0.00649597 0.00291099
0.0108032 0.000139459 0.00125872
0.00413552 0.00505082 0.00994572
0.00621467 0.00591131 0.00991824
0.00621323 0.00424452 0.00991844
0.0108058 0.0101293 0.00847704
0.0035487 4.55954e-05 0.00856681
0.0143664 0.0059206 0.00319228
0 0.00302218 0.00691532
0.0143635 0.00419824 0.00831284
0.0122289 0.00417246 -0.000141693
0.0143693 0.00289228 0.00137811
0 0.00244495 0.00857025
0.0035057 0.00861397 0.00995395
0.0107968 0.000138629 0.00847842
0.0121977 0.00277747 0.00984164
0.0127203 0.00435283 0.00983431
0.00814877 0.0100992 0.00573024
0.007451 0.00767641 0.00493876
0.00811038 0.0100986 0.00411331
0.0100221 0.0101215 0.00679982
0.00433466 0.00697028 0.009943
0.00598636 0.00440698 -7.11929e-05
0.00406687 5.23851e-05 0.00435372
0.00452255 5.85333e-05 0.00576904
0.0143711 0.00437602 0.000962678
0.00522531 0.0084033 0.00152322
0.0143641 0.00450896 0.00399226
0.0095875 0.00589337 -0.000113393
0.0123558 0.0101489 0.00235805
0 0.00848692 0.00262374
0.00193559 0.0100251 0.00403474
0 0.00885053 0.00419359
0.00602816 0.00892563 -7.27011e-05
0.00604213 0.010074 0.00161261
0.00718275 0.00488321 0.00229092
0.0103822 0.00465276 -0.000121615
0.00810225 0.000104095 0.00411581
0.00814107 0.000104631 0.0057322
0.00188044 0.0100241 0.00239332
0.012326 0.0026028 -0.000143128
0.0143624 0.00470099 0.00703543
0.0102294 0.0101241 0.00487242
0.00824659 0.00346793 0.00989196
0.00352631 4.61039e-05 0.00131256
0.0143643 0.00262874 0.00838064
0.0034345 0.00483515 0.00495628
0.00838596 0.004437 -9.87525e-05
0.0119651 0.0059562 -0.000138726
0.00787269 0.0100959 0.00711987
0.0143623 0.00450928 0.00565378
0.00776688 0.0100947 0.00267912
0.010221 0.000130514 0.00487404
0.00406994 0.0100502 0.00435166
0 0.00452174 0.00721958
0.00649048 0.00730074 0.00991448
0.00786499 0.000101097 0.00712096
0.00517228 0.00514022 0.00353081
0.00610681 0.0100745 0.0049302
0.00610045 7.89344e-05 0.00493273
0.00526803 0.00528382 0.00610822
0 0.005744 0.00499998
0 0.00433013 0.00583333
0.00718728 0.00583553 -8.53498e-05
0.00716193 0.00642974 0.00346436
0.00775903 9.98791e-05 0.00268104
0.0143644 0.00591993 0.00482245
0.00529756 0.00647567 0.0047768
0.00824856 0.00510291 0.00989188
0.014371 0.00595068 0.00142271
0 0.00666667 0
0.0123611 0.00767164 -0.000143403
0.00478615 6.26397e-05 -5.72507e-05
0 0.01 0.00666667
0.00718295 0.0100867 0.00990585
0 0.00288419 0.00499914
0.0143739 0.00766246 0.00121027
0.0143776 0.00684088 -0.000161586
0 0.005 0.01
0.00718411 0.00297685 -8.49336e-05
0 0.005 0
0.0143702 0.000190472 0.00316269
0.0143776 0.0101631 0.00648241
0.00603002 0.00735044 -7.23335e-05
0.0143628 0.00306694 0.00482237
0.0071847 9.38146e-05 -8.53379e-05
0 0 0.00666667
0.00545189 0.00368631 0.00515762
0.00717625 9.21148e-05 0.00990696
0.0143675 0.00018992 0.00648455
0 0 0.005
0.0126346 0.010151 0.00107194
0.0143788 0.00894796 0.0010566
0.014368 0.000189892 0.00482308
0.0143762 0.00517898 -0.000160437
0.00174785 0.00124252 -2.21082e-05
0 0.00122008 0.00122008
0 0.00333333 0.01
0 0.00666667 0.01
0.0126345 0.00893195 -0.000146509
0.0143799 0.0101627 0.00316022
0.0060551 0.0100739 0.00332249
0.0143722 0.00684031 0.00980535
0 0.00333333 0
0 0.00122008 0.00877992
0.00174577 2.20458e-05 0.00875829
0.00174559 0.00124207 0.00997773
0.0126277 0.0101496 0.0086159
0.00174657 0.008802 0.00997763
0 0.00877992 0.00877992
0.0143729 0.00894657 0.00858987
0.00959308 0.0101161 -0.000114805
0.014372 0.00140842 0.00105661
0.00174708 0.0100221 0.00875765
0.0126263 0.00892976 0.00983471
0.0143706 0.00517748 0.00980593
0 0 0.00333333
0.00958402 0.000124503 -0.000112865
0.0126252 0.000163533 0.0010723
0.00173547 2.22792e-05 0.00118984
0 0.00877992 0.00122008
0.0017472 0.00880267 -2.23745e-05
0.00173533 0.0100221 0.00118893
0.0143662 0.0014069 0.00859057
0.0126197 0.00138209 0.00983574
0.00957434 0.000122921 0.00987593
0.012628 0.00138394 -0.000146091
0.0126188 0.000162323 0.0086174
0.0143759 0.00351628 -0.000160163
0.00478425 0.010058 0.009937
0.00352839 0.0100436 0.00131145
0.00958331 0.0101148 0.00987496
0.0143691 0.00351422 0.00980575
0 0.01 0.005
0.00376654 0.00853482 -4.6093e-05
0.0143779 0.0101628 0.00482266
0 0.01 0.00333333
0 0.00166667 0
0.0143741 0.000190338 0.00150155
0 0.00166667 0.01
0 0.00833333 0
0.0143821 0.00850376 -0.000162201
0.0143688 0.00018953 0.00814645
0.0143841 0.0101646 0.00150139
0.0143787 0.0101633 0.00814483
0.0023884 0.0100292 0.00996911
0 0.01 0.00833333
0.0119955 0.0101433 -0.00014058
0.011986 0.000156347 -0.000139766
0.0119773 0.000154468 0.00984491
0.0119864 0.0101414 0.00984372
0 0 0.00833333
0.0143759 0.00850067 0.00980631
0.00238933 3.14431e-05 -2.96246e-05
0 0 0.00166667
0.00478984 0.010059 -5.83809e-05
0.0143699 0.00185298 0.00980699
0.0143771 0.00185508 -0.000160995
0.00238581 3.05123e-05 0.0099697
0.00238974 0.0100299 -3.02017e-05
0 0.01 0.00166667
0.0143816 0.010165 0.00980773
0 0 0.01
0.0143892 0.0101656 -0.000163473
0.0143722 0.000188356 0.00980958
0 0.01 0.01
0.0143799 0.000190052 -0.000162573
0 0.01 0
0 0 0
0.00719134 0.0100876 -8.7001e-05
0.00477961 6.14386e-05 0.00993769
0 0.00833333 0.01

CELLS 343 686
1 0
1 1
1 2
1 3
1 4
1 5
1 6
1 7
1 8
1 9
1 10
1 11
1 12
1 13
1 14
1 15
1 16
1 17
1 18
1 19
1 20
1 21
1 22
1 23
1 24
1 25
1 26
1 27
1 28
1 29
1 30
1 31
1 32
1 33
1 34
1 35
1 36
1 37
1 38
1 39
1 40
1 41
1 42
1 43
1 44
1 45
1 46
1 47
1 48
1 49
1 50
1 51
1 52
1 53
1 54
1 55
1 56
1 57
1 58
1 59
1 60
1 61
1 62
1 63
1 64
1 65
1 66
1 67
1 68
1 69
1 70
1 71
1 72
1 73
1 74
1 75
1 76
1 77
1 78
1 79
1 80
1 81
1 82
1 83
1 84
1 85
1 86
1 87
1 88
1 89
1 90
1 91
1 92
1 93
1 94
1 95
1 96
1 97
1 98
1 99
1 100
1 101
1 102
1 103
1 104
1 105
1 106
1 107
1 108
1 109
1 110
1 111
1 112
1 113
1 114
1 115
1 116
1 117
1 118
1 119
1 120
1 121
1 122
1 123
1 124
1 125
1 126
1 127
1 128
1 129
1 130
1 131
1 132
1 133
1 134
1 135
1 136
1 137
1 138
1 139
1 140
1 141
1 142
1 143
1 144
1 145
1 146
1 147
1 148
1 149
1 150
1 151
1 152
1 153
1 154
1 155
1 156
1 157
1 158
1 159
1 160
1 161
1 162
1 163
1 164
1 165
1 166
1 167
1 168
1 169
1 170
1 171
1 172
1 173
1 174
1 175
1 176
1 177
1 178
1 179
1 180
1 181
1 182
1 183
1 184
1 185
1 186
1 187
1 188
1 189
1 190
1 191
1 192
1 193
1 194
1 195
1 196
1 197
1 198
1 199
1 200
1 201
1 202
1 203
1 204
1 205
1 206
1 207
1 208
1 209
1 210
1 211
1 212
1 213
1 214
1 215
1 216
1 217
1 218
1 219
1 220
1 221
1 222
1 223
1 224
1 225
1 226
1 227
1 228
1 229
1 230
1 231
1 232
1 233
1 234
1 235
1 236
1 237
1 238
1 239
1 240
1 241
1 242
1 243
1 244
1 245
1 246
1 247
1 248
1 249
1 250
1 251
1 252
1 253
1 254
1 255
1 256
1 257
1 258
1 259
1 260
1 261
1 262
1 263
1 264
1 265
1 266
1 267
1 268
1 269
1 270
1 271
1 272
1 273
1 274
1 275
1 276
1 277
1 278
1 279
1 280
1 281
1 282
1 283
1 284
1 285
1 286
1 287
1 288
1 289
1 290
1 291
1 292
1 293
1 294
1 295
1 296
1 297
1 298
1 299
1 300
1 301
1 302
1 303
1 304
1 305
1 306
1 307
1 308
1 309
1 310
1 311
1 312
1 313
1 314
1 315
1 316
1 317
1 318
1 319
1 320
1 321
1 322
1 323
1 324
1 325
1 326
1 327
1 328
1 329
1 330
1 331
1 332
1 333
1 334
1 335
1 336
1 337
1 338
1 339
1 340
1 341
1 342

CELL_TYPES 343
1
1
1
1
1
1
1
1
1
1
1
1
1
1
1
1
1
1
1
1
1
1
1
1
1
1
1
1
1
1
1
1
1
1
1
1
1
1
1
1
1
1
1
1
1
1
1
1
1
1
1
1
1
1
1
1
1
1
1
1
1
1
1
1
1
1
1
1
1
1
1
1
1
1
1
1
1
1
1
1
1
1
1
1
1
1
1
1
1
1
1
1
1
1
1
1
1
1
1
1
1
1
1
1
1
1
1
1
1
1
1
1
1
1
1
1
1
1
1
1
1
1
1
1
1
1
1
1
1
1
1
1
1
1
1
1
1
1
1
1
1
1
1
1
1
1
1
1
1
1
1
1
1
1
1
1
1
1
1
1
1
1
1
1
1
1
1
1
1
1
1
1
1
1
1
1
1
1
1
1
1
1
1
1
1
1
1
1
1
1
1
1
1
1
1
1
1
1
1
1
1
1
1
1
1
1
1
1
1
1
1
1
1
1
1
1
1
1
1
1
1
1
1
1
1
1
1
1
1
1
1
1
1
1
1
1
1
1
1
1
1
1
1
1
1
1
1
1
1
1
1
1
1
1
1
1
1
1
1
1
1
1
1
1
1
1
1
1
1
1
1
1
1
1
1
1
1
1
1
1
1
1
1
1
1
1
1
1
1
1
1
1
1
1
1
1
1
1
1
1
1
1
1
1
1
1
1
1
1
1
1
1
1
1
1
1
1
1
1
1
1
1
1
1
1
1
1
1
1
1
1
1
1
1
1
1
1
1
1
1
1
1
1

POINT_DATA 343
FIELD FieldData 8

NodeID_(#) 1 343 int
0
1
2
3
4
5
6
7
8
9
10
11
12
13
14
15
16
17
18
19
20
21
22
23
24
25
26
27
28
29
30
31
32
33
34
35
36
37
38
39
40
41
42
43
44
45
46
47
48
49
50
51
52
53
54
55
56
57
58
59
60
61
62
63
64
65
66
67
68
69
70
71
72
73
74
75
76
77
78
79
80
81
82
83
84
85
86
87
88
89
90
91
92
93
94
95
96
97
98
99
100
101
102
103
104
105
106
107
108
109
110
111
112
113
114
115
116
117
118
119
120
121
122
123
124
125
126
127
128
129
130
131
132
133
134
135
136
137
138
139
140
141
142
143
144
145
146
147
148
149
150
151
152
153
154
155
156
157
158
159
160
161
162
163
164
165
166
167
168
169
170
171
172
173
174
175
176
177
178
179
180
181
182
183
184
185
186
187
188
189
190
191
192
193
194
195
196
197
198
199
200
201
202
203
204
205
206
207
208
209
210
211
212
213
214
215
216
217
218
219
220
221
222
223
224
225
226
227
228
229
230
231
232
233
234
235
236
237
238
239
240
241
242
243
244
245
246
247
248
249
250
251
252
253
254
255
256
257
258
259
260
261
262
263
264
265
266
267
268
269
270
271
272
273
274
275
276
277
278
279
280
281
282
283
284
285
286
287
288
289
290
291
292
293
294
295
296
297
298
299
300
301
302
303
304
305
306
307
308
309
310
311
312
313
314
315
316
317
318
319
320
321
322
323
324
325
326
327
328
329
330
331
332
333
334
335
336
337
338
339
340
341
342

Component_(#) 1 343 int
0
0
0
0
0
0
0
0
0
0
0
0
0
0
0
0
0
0
0
0
0
0
0
0
0
0
0
0
0
0
0
0
0
0
0
0
0
0
0
0
0
0
0
0
0
0
0
0
0
0
0
0
0
0
0
0
0
0
0
0
0
0
0
0
0
0
0
0
0
0
0
0
0
0
0
0
0
0
0
0
0
0
0
0
0
0
0
0
0
0
0
0
0
0
0
0
0
0
0
0
0
0
0
0
0
0
0
0
0
0
0
0
0
0
0
0
0
0
0
0
0
0
0
0
0
0
0
0
0
0
0
0
0
0
0
0
0
0
0
0
0
0
0
0
0
0
0
0
0
0
0
0
0
0
0
0
0
0
0
0
0
0
0
0
0
0
0
0
0
0
0
0
0
0
0
0
0
0
0
0
0
0
0
0
0
0
0
0
0
0
0
0
0
0
0
0
0
0
0
0
0
0
0
0
0
0
0
0
0
0
0
0
0
0
0
0
0
0
0
0
0
0
0
0
0
0
0
0
0
0
0
0
0
0
0
0
0
0
0
0
0
0
0
0
0
0
0
0
0
0
0
0
0
0
0
0
0
0
0
0
0
0
0
0
0
0
0
0
0
0
0
0
0
0
0
0
0
0
0
0
0
0
0
0
0
0
0
0
0
0
0
0
0
0
0
0
0
0
0
0
0
0
0
0
0
0
0
0
0
0
0
0
0
0
0
0
0
0
0
0
0
0
0
0
0
0
0
0
0
0
0
0
0
0
0
0
0
0
0
0
0
0
0

NodalMass_(kg) 1 343 double
3.15563e-06
1.41304e-05
2.20912e-06
1.71484e-05
8.42e-06
9.09306e-06
1.01179e-05
7.52198e-06
6.81096e-06
5.58223e-06
3.10888e-06
1.07575e-05
4.87011e-06
1.64955e-05
3.0246e-06
8.05984e-06
6.703e-06
1.0877e-05
4.18978e-06
8.16106e-06
6.14143e-06
1.17902e-05
2.23114e-06
4.25176e-06
1.09915e-05
7.41467e-06
4.21871e-06
3.92484e-06
3.08766e-06
1.31268e-05
7.72627e-06
1.65404e-05
1.19037e-05
7.97564e-06
3.81683e-06
1.11001e-05
3.81317e-06
1.39137e-05
6.37414e-06
8.00975e-06
7.6712e-06
1.21135e-05
1.6399e-05
2.78633e-06
8.93599e-06
2.58087e-06
7.57362e-06
4.23241e-06
1.31286e-05
3.80168e-06
2.7746e-06
7.16776e-06
1.21307e-05
5.11765e-06
8.19728e-06
4.58094e-06
2.79503e-06
3.26126e-06
4.12443e-06
2.11915e-06
3.35177e-06
3.61669e-06
1.56838e-05
7.33679e-06
8.24695e-06
5.00369e-06
2.82625e-06
7.20276e-06
3.26815e-06
4.18751e-06
2.02785e-06
2.42152e-06
3.11835e-06
5.97459e-06
5.87101e-06
4.09374e-06
5.45463e-06
2.28825e-06
4.49759e-06
4.38192e-06
4.50892e-06
4.39234e-06
4.27273e-06
5.32031e-06
1.53201e-06
2.38869e-06
2.02885e-06
4.38798e-06
3.17972e-06
3.14298e-06
4.61567e-06
5.87645e-06
8.18088e-06
2.48341e-06
1.53815e-05
3.49683e-06
7.35227e-06
2.01314e-06
2.0408e-06
7.98183e-06
4.41293e-06
7.1389e-06
1.20123e-06
5.03343e-06
1.61257e-06
4.12601e-06
8.73748e-06
4.37849e-06
7.97173e-06
2.13557e-06
3.38137e-06
9.48623e-06
7.40262e-06
1.80226e-06
2.10222e-06
7.98889e-06
1.87983e-06
7.44814e-06
4.19782e-06
2.37156e-06
4.31705e-06
6.06441e-06
4.30905e-06
2.16843e-06
1.8986e-06
1.81294e-06
3.89762e-06
2.44299e-06
1.65628e-06
8.01374e-06
1.64513e-06
2.3931e-06
3.01363e-06
2.99431e-06
1.36541e-06
1.87293e-06
2.09622e-06
1.94762e-06
1.87618e-06
6.37913e-06
4.58628e-06
2.02767e-06
1.61999e-06
2.41284e-06
3.8865e-06
4.44973e-06
2.29839e-06
1.17349e-05
3.11811e-06
1.354e-06
3.45063e-06
1.81846e-06
2.9382e-06
1.37381e-06
2.41464e-06
2.10451e-06
2.63927e-06
2.14166e-06
1.7943e-06
3.19976e-06
1.36989e-06
2.43489e-06
2.08158e-06
1.3601e-06
2.17203e-06
1.89924e-06
3.16996e-06
2.6119e-06
2.37677e-06
1.60225e-06
1.90684e-06
5.49206e-06
1.87878e-06
3.14313e-06
2.97301e-06
1.18454e-06
1.89263e-06
2.04166e-06
2.73572e-06
2.42405e-06
3.23083e-06
3.19752e-06
3.2142e-06
1.94492e-06
1.61196e-06
1.86876e-06
3.22435e-06
2.1114e-06
2.96917e-06
6.15288e-06
2.3097e-06
2.39729e-06
2.38029e-06
2.64508e-06
1.66557e-06
1.82377e-06
2.06583e-06
5.73271e-06
2.08467e-06
2.18324e-06
2.43522e-06
3.1188e-06
3.17316e-06
2.05447e-06
1.9592e-06
3.05718e-06
6.44327e-06
2.08796e-06
2.72615e-06
2.15709e-06
1.86812e-06
2.0028e-06
2.10999e-06
2.88994e-06
2.3222e-06
2.3979e-06
1.97629e-06
6.4127e-06
2.16225e-06
3.29198e-06
2.10223e-06
2.66566e-06
1.94415e-06
2.91865e-06
2.58116e-06
2.11703e-06
2.09534e-06
1.91719e-06
7.06046e-06
2.25203e-06
2.06378e-06
6.28159e-06
2.12147e-06
2.90924e-06
2.12921e-06
6.4487e-06
1.41701e-06
2.0682e-06
6.58062e-06
2.52584e-06
2.39732e-06
7.42191e-07
2.22368e-06
7.06751e-07
7.00657e-07
8.93749e-07
2.53536e-06
2.26535e-06
1.33607e-06
7.84725e-07
2.32303e-06
6.06694e-07
6.68276e-07
6.84307e-07
2.51242e-06
2.31629e-06
7.8367e-07
6.80839e-07
6.22692e-06
6.7471e-07
6.65305e-07
7.01158e-07
1.8232e-06
1.90695e-06
6.86722e-07
7.04792e-07
1.86445e-06
2.28572e-06
6.8045e-07
7.16005e-07
1.82373e-06
6.01079e-07
2.02791e-06
7.4579e-07
5.74423e-07
1.80052e-06
1.454e-06
2.2702e-06
1.80636e-06
2.15356e-06
1.79089e-06
1.79456e-06
6.8231e-07
2.24737e-06
1.45239e-06
1.79556e-06
6.97875e-07
6.24265e-07
6.62717e-07
1.44627e-06
1.40138e-06
2.15258e-06
1.82851e-06
1.3994e-06
1.43932e-06
2.19226e-06
6.97732e-07
1.77726e-06
1.79162e-06
6.54258e-07
7.3397e-07
2.34895e-06
7.10392e-07
6.56982e-07
6.26314e-07
2.18926e-06
6.12493e-07
6.03901e-07
5.92831e-07
5.12031e-07
5.11667e-07
4.9467e-07
4.97016e-07
4.96269e-07
5.33079e-07
4.94191e-07
4.97855e-07
4.86862e-07
4.90626e-07
4.94649e-07
4.94954e-07
4.91922e-07
4.89615e-07
4.96354e-07
4.95189e-07
4.82188e-07
1.10854e-06
5.3299e-07
5.44763e-07
5.36655e-07
5.15417e-07
5.01772e-07
5.53774e-07
5.53774e-07
5.53774e-07
5.53774e-07
5.53774e-07
5.53774e-07
5.50785e-07
5.50785e-07
7.45291e-07
7.11668e-07
4.9897e-07

NodalForce_(N) 3 343 double
-1.25909e-07 8.9842e-09 -9.24987e-09
-8.13462e-07 1.38533e-07 -2.88756e-07
0.000340612 4.12229e-05 0.000576671
-4.7788e-07 1.9754e-07 -2.66339e-07
5.49081e-07 9.00946e-07 -1.42149e-06
9.24554e-07 8.24638e-07 -1.66146e-06
-9.98899e-08 1.99018e-06 -4.04772e-06
-6.90617e-07 9.58257e-07 -1.95638e-06
1.14645e-06 1.19737e-06 -2.27018e-06
-3.36936e-08 4.26543e-07 -8.79423e-07
8.83022e-07 2.93107e-07 -4.8977e-07
2.47719e-06 1.32373e-06 -2.31244e-06
1.17756e-06 5.00598e-07 -7.05947e-07
1.04978e-06 1.90982e-07 -3.47222e-07
7.8214e-07 2.3906e-07 -5.04733e-07
5.53023e-07 1.25137e-06 -2.78534e-06
-2.61383e-07 8.75957e-07 -1.87349e-06
2.15332e-07 1.53634e-07 -3.06371e-07
0.000780383 0.000650313 0.000291344
-7.17499e-08 2.78304e-08 -7.95226e-08
-4.84038e-07 1.08564e-06 -1.96265e-06
1.00076e-06 2.78999e-06 -4.89188e-06
0.00173704 -0.000418082 0.000343369
-6.0831e-07 3.8002e-07 -5.77999e-07
-8.43017e-07 1.22807e-06 -2.10367e-06
-8.80649e-07 4.09339e-07 -9.43114e-07
7.36588e-08 1.4485e-08 -4.64447e-08
-1.21975e-07 3.52642e-07 -5.48985e-07
-5.24685e-07 3.96613e-08 -1.54205e-07
-9.49618e-07 3.74277e-08 -2.43504e-07
-1.31812e-06 2.8837e-07 -1.02139e-06
1.42303e-06 3.55757e-06 -7.69598e-06
2.4341e-06 2.57902e-06 -5.45148e-06
3.29983e-08 1.84646e-06 -3.88112e-06
-9.29922e-07 1.22858e-06 -2.47664e-06
-1.3072e-06 2.11066e-06 -4.36781e-06
-1.04154e-06 9.67694e-07 -1.90164e-06
-4.81871e-06 2.89532e-06 -6.17594e-06
5.31595e-07 2.66778e-07 -5.21951e-07
1.35266e-06 5.19384e-07 -1.31551e-06
7.61729e-07 5.3827e-07 -6.73159e-07
7.26276e-07 1.02379e-06 -2.37961e-06
4.02168e-07 1.84406e-07 -3.43069e-07
-6.84775e-08 7.80144e-08 -1.34791e-07
-3.5607e-07 4.62091e-07 -8.45694e-07
0.00107536 2.74456e-05 -0.000346541
-1.73982e-07 5.80329e-08 -1.00125e-07
0.000334856 0.0006012 -0.00050177
4.99964e-07 1.34292e-07 -3.95866e-07
1.91437e-07 1.9041e-08 -3.44116e-08
6.43837e-07 4.87264e-07 -1.11902e-06
1.15915e-06 8.68797e-07 -2.12121e-06
-3.26955e-07 4.22538e-08 -2.47234e-07
2.38063e-08 9.52676e-08 -2.72253e-07
4.16405e-08 4.02633e-08 -1.1157e-07
8.02146e-07 1.49307e-06 -3.06878e-06
0.000847383 -0.000261264 3.7814e-05
-2.45708e-07 1.80538e-08 -3.67546e-08
0.00193114 -0.000593333 0.000667358
7.64017e-08 6.79354e-07 -1.41216e-06
5.64343e-07 9.49357e-08 -2.59617e-07
1.53705e-07 1.33775e-06 -2.34457e-06
-1.98864e-06 4.00531e-06 -6.97227e-06
-3.09083e-07 1.84868e-06 -3.517e-06
3.00967e-07 5.315e-07 -6.50384e-07
-1.01604e-07 1.36191e-08 -5.4402e-08
3.42976e-07 1.33748e-07 -1.32331e-07
1.55561e-06 9.37548e-07 -2.11544e-06
-6.03635e-07 1.03597e-06 -2.11637e-06
4.38289e-07 1.26341e-06 -2.07867e-06
-3.17842e-07 7.72057e-08 -1.75705e-07
4.52663e-07 9.3329e-08 -1.66857e-07
9.99918e-08 1.40392e-07 -1.48513e-07
6.83564e-07 4.03343e-07 -1.06178e-06
-1.49043e-07 1.78128e-07 -3.26411e-07
0.00139273 -0.000291407 -0.000510151
-1.83561e-07 4.38508e-07 -8.42253e-07
-1.21638e-07 1.07393e-08 -2.12531e-08
8.17659e-07 5.64506e-07 -1.28123e-06
2.0341e-07 5.9098e-07 -1.29817e-06
1.502e-07 3.04161e-07 -6.93231e-07
5.87298e-07 2.96358e-07 -6.46625e-07
-4.63188e-07 1.37079e-06 -2.80604e-06
-4.0041e-07 1.01433e-07 -3.03143e-07
0.00121575 0.000333441 0.000240523
-1.64641e-07 -5.20077e-09 -1.06623e-08
0.00121366 -0.000166196 -0.000263537
0.00173039 -0.000255747 -0.000501074
0.00103655 0.000808127 -0.00055687
-4.38889e-07 5.81848e-08 -1.48656e-07
2.40104e-07 1.5886e-08 -4.56832e-08
1.57459e-07 4.72647e-07 -1.09063e-06
7.44014e-07 2.4514e-07 -8.86294e-07
9.40104e-07 4.88351e-07 -9.37516e-07
4.76294e-06 3.95874e-06 -7.02205e-06
8.54978e-08 7.58383e-07 -1.16892e-06
4.30822e-08 1.15286e-06 -1.81257e-06
-1.49084e-07 7.04259e-07 -1.30441e-06
0.00180462 0.000828185 -3.02439e-05
-1.65301e-07 1.11893e-06 -2.26189e-06
-8.25716e-07 6.89024e-07 -1.14237e-06
-1.18822e-06 9.80645e-07 -1.95261e-06
-7.10365e-08 4.98192e-08 -7.65231e-08
-7.45461e-07 1.29547e-06 -2.53065e-06
-1.54906e-07 5.76278e-08 -8.47804e-08
-2.45988e-07 6.95447e-07 -1.12935e-06
-1.76627e-06 1.16684e-06 -2.35995e-06
9.92648e-07 1.31968e-06 -2.1783e-06
1.43966e-06 1.31488e-06 -2.11309e-06
1.20708e-07 4.36725e-09 -1.93865e-08
-1.41629e-06 5.49516e-07 -1.2798e-06
-2.23441e-06 8.02993e-07 -1.87835e-06
-1.85805e-06 7.7837e-07 -1.97476e-06
0.000616894 0.000388473 -0.000491024
-1.5657e-07 7.78654e-07 -1.35999e-06
1.79462e-07 5.49702e-08 -1.39063e-07
-6.50127e-07 6.00215e-07 -1.22832e-06
-9.92095e-07 1.73072e-06 -3.56224e-06
-1.57442e-06 5.67847e-07 -1.15788e-06
6.7682e-07 5.2996e-07 -7.99689e-07
7.11027e-07 1.60017e-06 -2.81231e-06
6.67612e-07 1.52129e-06 -2.95114e-06
1.55196e-07 3.31786e-08 -4.67225e-08
0.00144867 0.000158481 0.000423767
8.99454e-08 2.07348e-08 -6.57132e-09
-9.18233e-08 5.75931e-07 -1.1885e-06
-1.60782e-06 4.36914e-07 -1.04918e-06
0.00167505 0.000460699 -0.000808104
7.43599e-08 1.38207e-08 -2.15146e-08
-1.07483e-06 4.54242e-07 -8.44123e-07
-4.18853e-08 4.29607e-07 -8.5865e-07
2.96432e-08 7.66515e-07 -1.60245e-06
1.13704e-06 4.56927e-07 -8.31135e-07
1.01152e-06 5.642e-07 -1.2198e-06
0.00124269 -0.000174371 0.000431212
-2.31669e-10 9.3635e-10 -1.38475e-08
0.00144014 -0.000311611 0.000429721
-3.18015e-08 5.95619e-07 -9.73255e-07
-5.39523e-07 5.86984e-07 -1.21834e-06
-1.81005e-06 1.4789e-06 -3.1088e-06
1.38122e-06 1.12688e-06 -2.40947e-06
8.84433e-07 4.8864e-07 -8.63397e-07
5.64158e-07 5.02944e-07 -8.17405e-07
6.98121e-07 9.06193e-07 -1.58652e-06
0.00104651 0.000564732 -0.000782031
1.56042e-06 7.84258e-07 -1.22037e-06
1.11747e-07 2.22951e-07 -2.62239e-07
-2.61496e-06 2.55284e-06 -5.08026e-06
-5.89621e-07 1.04771e-06 -2.00811e-06
-6.13507e-08 9.68266e-08 -1.65587e-07
-4.42641e-07 1.03657e-07 -1.6344e-07
3.62943e-10 3.81725e-09 -8.43549e-09
0.00227265 0.000696028 -5.01748e-06
8.02171e-08 4.4566e-07 -9.04487e-07
-7.53193e-07 4.34212e-07 -8.19497e-07
3.94497e-07 4.31786e-07 -9.26533e-07
0.00149896 8.38537e-05 -0.000681718
0.000965744 0.000837718 0.00180716
4.9489e-07 2.85729e-07 -6.77701e-07
5.91922e-07 1.1116e-06 -2.10468e-06
2.4838e-07 1.40631e-07 -1.57675e-07
5.58876e-08 5.35473e-08 -1.24126e-07
-4.58732e-07 4.93967e-07 -8.48259e-07
3.04129e-07 1.47563e-07 -3.9093e-07
2.83292e-07 6.98752e-07 -1.45892e-06
4.53131e-07 4.7845e-07 -1.02384e-06
-8.38716e-07 5.82039e-07 -1.13267e-06
-5.32197e-07 5.8836e-08 -2.38214e-07
-1.15111e-06 4.47117e-07 -1.00093e-06
-7.03621e-07 3.26709e-07 -6.63007e-07
-6.82869e-07 1.96505e-07 -5.09467e-07
-1.08679e-06 8.51424e-07 -1.84826e-06
-1.60277e-07 4.69456e-07 -7.60903e-07
4.56861e-07 8.73534e-08 -2.59952e-07
6.15256e-07 1.63673e-07 -5.28651e-07
2.74253e-07 7.50386e-08 -2.1159e-07
1.07686e-07 3.94863e-07 -8.21478e-07
2.93597e-07 9.3023e-08 -8.54983e-08
-5.08493e-07 8.87697e-07 -1.76427e-06
0.00184075 -8.9768e-05 0.000297516
8.41254e-07 1.09028e-06 -2.15316e-06
-1.10597e-06 8.21084e-07 -1.61414e-06
-6.43342e-07 1.13716e-06 -2.06781e-06
0.00140564 -0.000205958 -0.000293161
1.47192e-07 4.54677e-08 -1.0236e-07
7.54647e-07 4.84681e-07 -7.68855e-07
1.36312e-06 8.85746e-07 -1.66993e-06
7.73175e-07 5.8148e-07 -1.17283e-06
-2.86601e-07 3.73036e-07 -6.49913e-07
-4.38848e-07 5.30684e-07 -1.0688e-06
-4.51344e-07 2.8691e-07 -4.89264e-07
-1.20978e-07 4.3281e-07 -8.25794e-07
3.1036e-07 3.86901e-08 -2.20639e-07
-5.81763e-07 1.41437e-07 -3.91335e-07
1.0379e-07 8.49989e-08 -7.42226e-08
1.91966e-07 1.07874e-07 -1.02279e-07
-5.92592e-07 6.95819e-07 -1.33532e-06
-1.08861e-06 2.4298e-07 -6.26232e-07
-1.47271e-07 6.96093e-07 -1.35481e-06
-7.76807e-07 3.10151e-07 -7.38714e-07
-9.61743e-07 6.21509e-07 -1.23154e-06
0.00156333 -0.000354083 -0.000122075
-9.44864e-08 1.53936e-08 -2.79485e-08
0.00134349 -0.000624284 6.18315e-05
-6.14823e-07 1.22824e-07 -3.02059e-07
-8.04825e-07 2.28828e-07 -4.28055e-07
-8.88326e-07 4.72465e-07 -1.15726e-06
-6.82304e-07 3.82861e-07 -8.03295e-07
2.41902e-07 4.30508e-07 -5.69842e-07
4.07876e-07 3.45479e-07 -4.54942e-07
-9.19427e-08 1.02976e-08 -6.03383e-09
-5.75111e-07 5.55467e-07 -1.01942e-06
3.12458e-07 7.0146e-07 -1.39507e-06
-5.35941e-07 5.38869e-07 -1.01608e-06
7.37877e-07 2.97442e-07 -6.44468e-07
-3.44588e-08 7.23575e-08 -9.62603e-08
6.44445e-07 7.14031e-07 -1.31367e-06
-3.98697e-08 8.19519e-08 -2.18912e-07
-5.94477e-07 2.58715e-07 -5.91646e-07
-1.34861e-06 7.37213e-07 -1.62068e-06
-4.99714e-08 2.43872e-07 -4.6992e-07
1.43717e-07 8.89287e-07 -1.74762e-06
-5.27889e-07 2.21262e-07 -3.98378e-07
4.52884e-07 6.56154e-07 -1.01437e-06
-2.35655e-07 7.62189e-08 -1.09538e-07
0.00163938 0.000282599 0.000757149
3.73976e-07 1.35549e-07 -3.93233e-07
4.94523e-07 2.91257e-07 -4.05517e-07
-3.58776e-07 2.29973e-07 -5.06373e-07
-2.72007e-07 1.67732e-07 -2.52963e-07
2.37323e-07 2.10827e-07 -2.15313e-07
1.57582e-07 2.08858e-07 -5.17063e-07
0.00204111 -0.00142012 9.10005e-05
0.00184698 0.000701825 -0.00116923
-6.13658e-07 1.35785e-07 -4.48471e-07
-7.53306e-07 4.64522e-07 -1.03839e-06
1.89502e-08 2.05837e-07 -2.94246e-07
-1.31694e-07 6.69684e-07 -1.34922e-06
-2.35127e-07 2.07435e-07 -4.87736e-07
6.78446e-07 2.74754e-07 -7.17647e-07
-7.57878e-07 7.73398e-07 -1.54961e-06
0.000864514 0.000724487 4.44088e-05
-1.06748e-06 5.29201e-07 -1.15597e-06
-6.2584e-08 5.90873e-08 -7.63997e-08
0.000905726 -3.3655e-05 -0.000974214
1.15774e-07 9.95691e-08 -2.11075e-07
0.00210342 -0.00112597 0.00014185
-9.03153e-07 7.03672e-07 -1.47152e-06
-6.19051e-07 4.22916e-07 -8.83028e-07
0.000767975 -0.00107631 0.000140125
-4.79709e-07 2.26088e-07 -4.68306e-07
0.000765924 0.00120654 -4.78762e-05
2.61776e-08 2.59342e-07 -4.33023e-07
-6.99327e-08 2.28872e-07 -4.52869e-07
-6.99307e-07 1.17366e-07 -3.8474e-07
1.14494e-07 8.0511e-07 -1.5114e-06
-1.01825e-07 1.12349e-07 -1.65977e-07
0.000653473 -0.000174501 0.000795063
1.61777e-07 2.68706e-07 -5.01601e-07
2.46307e-07 9.01647e-08 -1.48088e-07
1.88553e-07 2.57569e-07 -4.32443e-07
0.000403759 -0.000458711 0.00103302
-8.91157e-07 4.77575e-07 -9.75209e-07
-8.74634e-07 6.0667e-07 -1.24627e-06
1.11202e-07 2.6497e-07 -4.46324e-07
-2.79325e-07 2.29219e-07 -4.64085e-07
-6.01323e-08 1.97161e-08 -1.17539e-08
0.0009804 0.000567117 7.30458e-06
0.000645666 -0.000980942 0.000206363
0.000682073 -0.000985704 0.000136358
-9.62789e-07 4.55217e-07 -9.83207e-07
-2.10051e-07 1.97457e-07 -3.91758e-07
-3.80541e-07 1.5146e-07 -2.18619e-07
1.97336e-07 2.41403e-07 -5.0965e-07
0.000792534 0.000460244 0.00016361
0.000411112 0.000354127 -0.000519843
7.55254e-08 1.84856e-08 -1.35927e-08
1.1746e-07 1.32442e-08 -1.71941e-08
1.13996e-07 4.96283e-07 -1.01296e-06
7.09093e-08 1.74444e-08 -2.39007e-08
0.000618448 -0.000179056 -0.000311733
1.7376e-07 5.88207e-07 -1.21707e-06
-3.3944e-07 1.10487e-07 -2.35094e-07
-3.6985e-07 8.44931e-07 -1.45098e-06
1.60927e-08 5.81607e-09 -2.75122e-08
3.46966e-07 4.87586e-07 -1.00888e-06
2.30365e-07 2.34771e-07 -4.74105e-07