# vtk DataFile Version 4.2
vtk output
ASCII
DATASET UNSTRUCTURED_GRID

POINTS 343 double
0.00161172 0.00421626 -2.0639e-05
0.00311714 0.00502402 0.00213525
0 0.00419538 0.00112517
0.00277478 0.00199114 0.00190658
0.00744732 0.00251128 0.00493922
0.00744411 0.00393219 0.0063037
0.0109756 0.00492907 0.00486268
0.00896171 0.0049747 0.00358092
0.00984686 0.00342701 0.00678997
0.00718026 0.00509056 0.00490985
0.00602051 0.00120222 0.0099209
0.00760662 0.00218686 0.00780704
0.00604013 7.7892e-05 0.00824066
0.00289058 0.00204017 0.0079967
0.00616814 0.00261738 0.00991861
0.0100058 0.00658431 0.00682039
0.009227 0.00630937 0.00506803
0.00324961 0.00222771 0.00510483
0 0.00143586 0.00417514
0.00228986 0.00349618 0.00400772
0.00985265 0.00333323 0.00304084
0.0111652 0.002374 0.0049253
0 0.00270918 0.00154168
0.00599728 0.00151377 -7.18957e-05
0.00721878 0.00228971 0.0021089
0.00570516 0.00360522 0.00153282
0.0019353 2.44049e-05 0.00403554
0.00603667 7.84758e-05 0.0016135
0.00377309 0.00700232 -4.60911e-05
0.00277818 0.00808952 0.00190887
0.00587821 0.00632755 0.00157241
0.0115071 0.00814274 0.00784994
0.0114663 0.00497656 0.00787554
0.012069 0.00624826 0.00579617
0.0143712 0.00901866 0.00401708
0.0108973 0.00778519 0.00482815
0.0123146 0.0101493 0.00401518
0.0114764 0.00812927 0.00187691
0.00508604 0.00310492 0.00689556
0.00638346 0.00374831 0.00824166
0.00560604 0.00167859 0.00589865
0.00718983 0.00776473 0.00758483
0.0028511 0.00804544 0.00795346
0.00405223 0.0100502 0.00707542
0.00562194 0.00847424 0.00588639
0 0.00695361 0.00262895
0.00236183 0.00627046 0.00405759
0 0.0040177 0.00850214
0.00332199 0.00502917 0.00761943
0.00205566 0.00420082 0.00997387
0.0103156 0.00725831 0.00986383
0.00879782 0.00609062 0.00830414
0.00294174 0.00798033 0.00470404
0.0043693 0.00700136 0.00641269
0.00227628 0.00610832 0.00589686
0.0143661 0.0059847 0.00812695
0 0.00718191 0.00711644
0.00227374 0.00580397 -2.8886e-05
0 0.00577432 0.00158701
0.0143675 0.00735553 0.00693009
0.00412025 0.00340361 0.00994547
0.0143646 0.00162312 0.00399976
0.011591 0.00211112 0.00183972
0.0120856 0.00367442 0.00384987
0.00536745 0.00172285 0.00406054
0.00216034 0.0100277 0.00578714
0.0040485 5.24959e-05 0.00707708
0.00879338 0.00429269 0.00826268
0.0143674 0.00744969 0.0040199
0.0123062 0.000156909 0.00401664
0.00481301 0.00293608 -5.80482e-05
0.00388347 0.0015911 0.00994882
0.00406385 5.29373e-05 0.00278069
0.00689901 0.00528746 0.00746593
0.00454349 0.00320758 0.00310936
0 0.00849157 0.00581511
0.00700445 0.00376626 0.00369853
0.00220911 0.00273781 -2.79759e-05
0.00833026 0.00842746 0.00988956
0.00859221 0.0101046 0.00839441
0.00604526 0.0100743 0.00823948
0.00576581 0.00857483 0.00992322
0.0143688 0.00866082 0.00563216
0.00452053 0.00689443 0.00309253
0 0.00748929 0.00137438
0.00196841 0.007515 -2.51643e-05
0 0.00287343 0.00335182
0 0.00580816 0.00831736
0 0.00429792 0.00253898
0.00364345 0.0043452 -4.44865e-05
0.0020552 0.00584566 0.00997377
0.00743938 0.00656941 0.00630584
0.00517456 0.00657792 0.0081671
0.00998618 0.00275413 0.00986847
0.011531 0.0021053 0.00788703
0.0100193 0.000128795 0.0029593
0.00865201 0.00177592 0.00350596
0.0143652 0.00305681 0.00317802
0 0.00140616 0.00256446
0.00915963 0.00834073 0.00630475
0.00836468 0.00154407 -9.9375e-05
0.00867807 0.00366309 0.00149799
0.00452714 0.0100559 0.00576668
0.0123054 0.0101494 0.00567709
0.00368024 0.0014541 -4.48124e-05
0.00858989 0.000111168 0.00138987
0.00902881 0.00839948 0.00350472
0.0122978 0.000156823 0.00567845
0.00891749 0.00178751 0.00625281
0.00201261 0.00258961 0.0099743
0.010236 0.00730876 -0.000122325
0.00742619 0.00778313 0.00207664
0.00854431 0.00620112 0.0014978
0 0.00686719 0.00578184
0.0143676 0.0015941 0.0023937
0.00254433 0.00364302 0.00637547
0.0143727 0.00865584 0.0024508
0.0120926 0.00633899 0.00398363
0.00859744 0.0101053 0.00138809
0.010015 0.000128517 0.00680011
0.0143636 0.0016223 0.00563766
0.0120688 0.00372548 0.00590836
0.00215974 2.72217e-05 0.00578794
0 0.0013659 0.00748679
0.00196009 2.4771e-05 0.00750451
0.0143664 0.0070422 0.00559834
0.00836355 0.00859555 -0.000100859
0 0.0075208 0.00859127
0.00195551 0.00751153 0.00997507
0.00607692 0.00828169 0.00355078
0.0123537 0.0101485 0.00735263
0.014371 0.00879883 0.00733792
0.00829188 0.00169316 0.00989078
0.0104308 0.00431895 0.00986225
0 0.0057735 0.00666667
0.00196109 0.0100251 0.00750358
0 0.00863025 0.00752641
0.0123473 0.000158944 0.00235783
0.0143689 0.00712967 0.00245661
0.0121637 0.00649232 0.00201624
0.0122321 0.00597497 0.00983946
0.0107618 0.00151187 0.00985873
0.0123458 0.000158524 0.00735457
0.0143651 0.00155273 0.00729994
0 0.00143551 0.00581971
0.00858441 0.000110538 0.00839551
0.0060496 7.84038e-05 0.00332437
0.0114091 0.00485144 0.00189709
0.0143666 0.00447857 0.00236825
0.0060704 0.0100745 0.00658847
0.00406647 0.01005 0.00277926
0.00188045 2.39694e-05 0.00239428
0 0.00727418 0.00419576
0.0143651 0.00595058 0.00648105
0.0100272 0.0101221 0.0029573
0.0107914 0.00876747 0.0098574
0 0.00574334 0.00336387
0 0.0043297 0.00416652
0.00987021 0.00590663 0.00986975
0.0143632 0.00320493 0.00673092
0.00606467 7.84784e-05 0.00659018
0.00355269 0.0100439 0.00856537
0.0107651 0.00150526 -0.000127073
0.00829384 0.00676972 0.00989023
0.01437 0.00769333 0.00839917
0.0123766 0.00770367 0.00983695
0.00994258 0.00314984 -0.000117624
0.00483066 0.0058058 -5.84524e-05
0.0108289 0.00876343 -0.0001288
0.010811 0.0101312 0.00125619
0.00831389 0.00697131 -9.9823e-05
0.0100275 0.00649628 0.00290988
0.0108033 0.000140094 0.00125737
0.00413621 0.00505089 0.00994541
0.00621569 0.00591142 0.00991759
0.00621429 0.00424466 0.00991779
0.0108067 0.0101298 0.00847552
0.00354926 4.57301e-05 0.00856666
0.0143664 0.00592131 0.00319011
0 0.00302218 0.00691532
0.014365 0.00419901 0.00831053
0.0122283 0.00417303 -0.00014342
0.0143692 0.00289311 0.00137594
0 0.00244495 0.00857025
0.00350623 0.00861404 0.00995371
0.0107986 0.000139295 0.008477
0.0121996 0.00277813 0.00983981
0.0127221 0.00435346 0.00983235
0.00814902 0.0100995 0.00572952
0.00745123 0.00767659 0.0049382
0.0081103 0.0100989 0.00411262
0.0100227 0.0101219 0.00679866
0.00433534 0.00697032 0.00994265
0.00598592 0.00440708 -7.17104e-05
0.00406719 5.25278e-05 0.00435359
0.00452301 5.87008e-05 0.00576887
0.0143707 0.00437678 0.000960492
0.00522504 0.00840338 0.00152286
0.0143645 0.00450971 0.00399007
0.00958681 0.00589365 -0.00011456
0.0123553 0.0101495 0.00235636
0 0.00848692 0.00262374
0.00193563 0.0100251 0.00403471
0 0.00885053 0.00419359
0.00602753 0.00892576 -7.32433e-05
0.00604171 0.0100742 0.00161215
0.00718264 0.00488335 0.00229034
0.0103816 0.00465316 -0.000122932
0.00810278 0.000104504 0.00411515
0.00814195 0.000105049 0.00573151
0.00188042 0.0100241 0.00239331
0.0123255 0.00260345 -0.000144867
0.0143636 0.00470174 0.00703316
0.0102295 0.0101246 0.00487125
0.00824802 0.00346823 0.00989096
0.00352637 4.61858e-05 0.00131243
0.014366 0.0026296 0.00837834
0.00343465 0.00483518 0.00495618
0.00838543 0.00443725 -9.96936e-05
0.0119643 0.00595665 -0.000140418
0.00787317 0.0100961 0.00711911
0.0143631 0.00451003 0.00565155
0.00776654 0.010095 0.00267845
0.0102219 0.000131086 0.0048729
0.00406995 0.0100503 0.00435152
0 0.00452174 0.00721958
0.00649146 0.00730088 0.00991379
0.00786609 0.000101496 0.00712024
0.00517238 0.00514028 0.00353059
0.00610685 0.0100746 0.00492985
0.00610101 7.92095e-05 0.00493241
0.00526837 0.00528387 0.00610796
0 0.005744 0.00499998
0 0.00433013 0.00583333
0.00718671 0.00583564 -8.60832e-05
0.00716194 0.00642987 0.00346385
0.0077593 0.000100255 0.00268037
0.0143649 0.00592064 0.00482025
0.00529774 0.00647572 0.00477657
0.00824988 0.00510315 0.00989086
0.0143706 0.00595139 0.00142053
0 0.00666667 0
0.0123602 0.00767215 -0.000145191
0.00478601 6.28827e-05 -5.76353e-05
0 0.01 0.00666667
0.0071839 0.010087 0.00990498
0 0.00288419 0.00499914
0.0143733 0.00766312 0.00120807
0.0143767 0.00684156 -0.000163859
0 0.005 0.01
0.00718372 0.00297707 -8.56321e-05
0 0.005 0
0.0143708 0.000191449 0.00316052
0.0143781 0.0101639 0.00648014
0.00602947 0.00735052 -7.28729e-05
0.0143636 0.00306775 0.00482016
0.00718449 9.42077e-05 -8.60758e-05
0 0 0.00666667
0.00545221 0.0036864 0.00515737
0.00717769 9.24543e-05 0.00990615
0.0143689 0.000190893 0.00648233
0 0 0.005
0.0126338 0.0101516 0.00107013
0.014378 0.00894866 0.00105438
0.0143691 0.000190862 0.00482088
0.0143755 0.00517969 -0.000162699
0.00174782 0.00124255 -2.21373e-05
0 0.00122008 0.00122008
0 0.00333333 0.01
0 0.00666667 0.01
0.0126335 0.00893249 -0.000148362
0.0143796 0.0101635 0.00315802
0.00605493 0.0100741 0.00332215
0.0143739 0.00684103 0.00980293
0 0.00333333 0
0 0.00122008 0.00877992
0.00174599 2.20865e-05 0.00875825
0.00174581 0.00124209 0.0099777
0.0126288 0.0101502 0.00861394
0.00174678 0.00880203 0.00997759
0 0.00877992 0.00877992
0.0143741 0.00894732 0.00858751
0.00959207 0.0101165 -0.000115994
0.014372 0.00140934 0.00105443
0.00174723 0.0100221 0.00875759
0.0126277 0.0089304 0.00983271
0.0143724 0.00517825 0.00980353
0 0 0.00333333
0.00958378 0.000125079 -0.000114057
0.0126252 0.000164349 0.00107053
0.0017355 2.22997e-05 0.00118979
0 0.00877992 0.00122008
0.0017471 0.00880266 -2.24023e-05
0.00173526 0.0100221 0.00118889
0.0143681 0.00140783 0.00858827
0.0126218 0.00138286 0.00983381
0.0095762 0.000123438 0.00987465
0.0126276 0.00138471 -0.000147899
0.0126207 0.000163145 0.00861553
0.0143754 0.00351708 -0.000162403
0.00478491 0.0100581 0.00993653
0.00352816 0.0100436 0.00131131
0.00958445 0.0101152 0.00987359
0.0143711 0.00351503 0.00980337
0 0.01 0.005
0.00376617 0.00853484 -4.62928e-05
0.014378 0.0101636 0.00482044
0 0.01 0.00333333
0 0.00166667 0
0.0143743 0.000191325 0.00149936
0 0.00166667 0.01
0 0.00833333 0
0.0143811 0.00850444 -0.000164463
0.0143707 0.000190516 0.00814417
0.0143833 0.0101654 0.00149917
0.0143797 0.0101641 0.00814245
0.00238869 0.0100292 0.00996897
0 0.01 0.00833333
0.0119944 0.0101439 -0.000142295
0.0119857 0.00015713 -0.000141456
0.0119795 0.000155226 0.00984311
0.0119877 0.0101421 0.00984183
0 0 0.00833333
0.0143774 0.00850143 0.00980387
0.00238932 3.15243e-05 -2.9732e-05
0 0 0.00166667
0.00478929 0.0100591 -5.8729e-05
0.014372 0.0018539 0.00980462
0.0143767 0.00185598 -0.000163228
0.00238621 3.05737e-05 0.00996959
0.00238954 0.0100299 -3.02931e-05
0 0.01 0.00166667
0.014383 0.0101658 0.00980527
0 0 0.01
0.0143881 0.0101664 -0.000165744
0.0143745 0.000189334 0.00980722
0 0.01 0.01
0.0143797 0.000191073 -0.000164815
0 0.01 0
0 0 0
0.00719052 0.0100878 -8.77247e-05
0.00478061 6.16059e-05 0.00993728
0 0.00833333 0.01

CELLS 343 686
1 0
1 1
1 2
1 3
1 4
1 5
1 6
1 7
1 8
1 9
1 10
1 11
1 12
1 13
1 14
1 15
1 16
1 17
1 18
1 19
1 20
1 21
1 22
1 23
1 24
1 25
1 26
1 27
1 28
1 29
1 30
1 31
1 32
1 33
1 34
1 35
1 36
1 37
1 38
1 39
1 40
1 41
1 42
1 43
1 44
1 45
1 46
1 47
1 48
1 49
1 50
1 51
1 52
1 53
1 54
1 55
1 56
1 57
1 58
1 59
1 60
1 61
1 62
1 63
1 64
1 65
1 66
1 67
1 68
1 69
1 70
1 71
1 72
1 73
1 74
1 75
1 76
1 77
1 78
1 79
1 80
1 81
1 82
1 83
1 84
1 85
1 86
1 87
1 88
1 89
1 90
1 91
1 92
1 93
1 94
1 95
1 96
1 97
1 98
1 99
1 100
1 101
1 102
1 103
1 104
1 105
1 106
1 107
1 108
1 109
1 110
1 111
1 112
1 113
1 114
1 115
1 116
1 117
1 118
1 119
1 120
1 121
1 122
1 123
1 124
1 125
1 126
1 127
1 128
1 129
1 130
1 131
1 132
1 133
1 134
1 135
1 136
1 137
1 138
1 139
1 140
1 141
1 142
1 143
1 144
1 145
1 146
1 147
1 148
1 149
1 150
1 151
1 152
1 153
1 154
1 155
1 156
1 157
1 158
1 159
1 160
1 161
1 162
1 163
1 164
1 165
1 166
1 167
1 168
1 169
1 170
1 171
1 172
1 173
1 174
1 175
1 176
1 177
1 178
1 179
1 180
1 181
1 182
1 183
1 184
1 185
1 186
1 187
1 188
1 189
1 190
1 191
1 192
1 193
1 194
1 195
1 196
1 197
1 198
1 199
1 200
1 201
1 202
1 203
1 204
1 205
1 206
1 207
1 208
1 209
1 210
1 211
1 212
1 213
1 214
1 215
1 216
1 217
1 218
1 219
1 220
1 221
1 222
1 223
1 224
1 225
1 226
1 227
1 228
1 229
1 230
1 231
1 232
1 233
1 234
1 235
1 236
1 237
1 238
1 239
1 240
1 241
1 242
1 243
1 244
1 245
1 246
1 247
1 248
1 249
1 250
1 251
1 252
1 253
1 254
1 255
1 256
1 257
1 258
1 259
1 260
1 261
1 262
1 263
1 264
1 265
1 266
1 267
1 268
1 269
1 270
1 271
1 272
1 273
1 274
1 275
1 276
1 277
1 278
1 279
1 280
1 281
1 282
1 283
1 284
1 285
1 286
1 287
1 288
1 289
1 290
1 291
1 292
1 293
1 294
1 295
1 296
1 297
1 298
1 299
1 300
1 301
1 302
1 303
1 304
1 305
1 306
1 307
1 308
1 309
1 310
1 311
1 312
1 313
1 314
1 315
1 316
1 317
1 318
1 319
1 320
1 321
1 322
1 323
1 324
1 325
1 326
1 327
1 328
1 329
1 330
1 331
1 332
1 333
1 334
1 335
1 336
1 337
1 338
1 339
1 340
1 341
1 342

CELL_TYPES 343
1
1
1
1
1
1
1
1
1
1
1
1
1
1
1
1
1
1
1
1
1
1
1
1
1
1
1
1
1
1
1
1
1
1
1
1
1
1
1
1
1
1
1
1
1
1
1
1
1
1
1
1
1
1
1
1
1
1
1
1
1
1
1
1
1
1
1
1
1
1
1
1
1
1
1
1
1
1
1
1
1
1
1
1
1
1
1
1
1
1
1
1
1
1
1
1
1
1
1
1
1
1
1
1
1
1
1
1
1
1
1
1
1
1
1
1
1
1
1
1
1
1
1
1
1
1
1
1
1
1
1
1
1
1
1
1
1
1
1
1
1
1
1
1
1
1
1
1
1
1
1
1
1
1
1
1
1
1
1
1
1
1
1
1
1
1
1
1
1
1
1
1
1
1
1
1
1
1
1
1
1
1
1
1
1
1
1
1
1
1
1
1
1
1
1
1
1
1
1
1
1
1
1
1
1
1
1
1
1
1
1
1
1
1
1
1
1
1
1
1
1
1
1
1
1
1
1
1
1
1
1
1
1
1
1
1
1
1
1
1
1
1
1
1
1
1
1
1
1
1
1
1
1
1
1
1
1
1
1
1
1
1
1
1
1
1
1
1
1
1
1
1
1
1
1
1
1
1
1
1
1
1
1
1
1
1
1
1
1
1
1
1
1
1
1
1
1
1
1
1
1
1
1
1
1
1
1
1
1
1
1
1
1
1
1
1
1
1
1
1
1
1
1
1
1
1
1
1
1
1
1
1
1
1
1
1
1
1
1
1
1
1
1

POINT_DATA 343
FIELD FieldData 8

NodeID_(#) 1 343 int
0
1
2
3
4
5
6
7
8
9
10
11
12
13
14
15
16
17
18
19
20
21
22
23
24
25
26
27
28
29
30
31
32
33
34
35
36
37
38
39
40
41
42
43
44
45
46
47
48
49
50
51
52
53
54
55
56
57
58
59
60
61
62
63
64
65
66
67
68
69
70
71
72
73
74
75
76
77
78
79
80
81
82
83
84
85
86
87
88
89
90
91
92
93
94
95
96
97
98
99
100
101
102
103
104
105
106
107
108
109
110
111
112
113
114
115
116
117
118
119
120
121
122
123
124
125
126
127
128
129
130
131
132
133
134
135
136
137
138
139
140
141
142
143
144
145
146
147
148
149
150
151
152
153
154
155
156
157
158
159
160
161
162
163
164
165
166
167
168
169
170
171
172
173
174
175
176
177
178
179
180
181
182
183
184
185
186
187
188
189
190
191
192
193
194
195
196
197
198
199
200
201
202
203
204
205
206
207
208
209
210
211
212
213
214
215
216
217
218
219
220
221
222
223
224
225
226
227
228
229
230
231
232
233
234
235
236
237
238
239
240
241
242
243
244
245
246
247
248
249
250
251
252
253
254
255
256
257
258
259
260
261
262
263
264
265
266
267
268
269
270
271
272
273
274
275
276
277
278
279
280
281
282
283
284
285
286
287
288
289
290
291
292
293
294
295
296
297
298
299
300
301
302
303
304
305
306
307
308
309
310
311
312
313
314
315
316
317
318
319
320
321
322
323
324
325
326
327
328
329
330
331
332
333
334
335
336
337
338
339
340
341
342

Component_(#) 1 343 int
0
0
0
0
0
0
0
0
0
0
0
0
0
0
0
0
0
0
0
0
0
0
0
0
0
0
0
0
0
0
0
0
0
0
0
0
0
0
0
0
0
0
0
0
0
0
0
0
0
0
0
0
0
0
0
0
0
0
0
0
0
0
0
0
0
0
0
0
0
0
0
0
0
0
0
0
0
0
0
0
0
0
0
0
0
0
0
0
0
0
0
0
0
0
0
0
0
0
0
0
0
0
0
0
0
0
0
0
0
0
0
0
0
0
0
0
0
0
0
0
0
0
0
0
0
0
0
0
0
0
0
0
0
0
0
0
0
0
0
0
0
0
0
0
0
0
0
0
0
0
0
0
0
0
0
0
0
0
0
0
0
0
0
0
0
0
0
0
0
0
0
0
0
0
0
0
0
0
0
0
0
0
0
0
0
0
0
0
0
0
0
0
0
0
0
0
0
0
0
0
0
0
0
0
0
0
0
0
0
0
0
0
0
0
0
0
0
0
0
0
0
0
0
0
0
0
0
0
0
0
0
0
0
0
0
0
0
0
0
0
0
0
0
0
0
0
0
0
0
0
0
0
0
0
0
0
0
0
0
0
0
0
0
0
0
0
0
0
0
0
0
0
0
0
0
0
0
0
0
0
0
0
0
0
0
0
0
0
0
0
0
0
0
0
0
0
0
0
0
0
0
0
0
0
0
0
0
0
0
0
0
0
0
0
0
0
0
0
0
0
0
0
0
0
0
0
0
0
0
0
0
0
0
0
0
0
0
0
0
0
0
0
0

NodalMass_(kg) 1 343 double
3.15563e-06
1.41304e-05
2.20912e-06
1.71484e-05
8.42e-06
9.09306e-06
1.01179e-05
7.52198e-06
6.81096e-06
5.58223e-06
3.10888e-06
1.07575e-05
4.87011e-06
1.64955e-05
3.0246e-06
8.05984e-06
6.703e-06
1.0877e-05
4.18978e-06
8.16106e-06
6.14143e-06
1.17902e-05
2.23114e-06
4.25176e-06
1.09915e-05
7.41467e-06
4.21871e-06
3.92484e-06
3.08766e-06
1.31268e-05
7.72627e-06
1.65404e-05
1.19037e-05
7.97564e-06
3.81683e-06
1.11001e-05
3.81317e-06
1.39137e-05
6.37414e-06
8.00975e-06
7.6712e-06
1.21135e-05
1.6399e-05
2.78633e-06
8.93599e-06
2.58087e-06
7.57362e-06
4.23241e-06
1.31286e-05
3.80168e-06
2.7746e-06
7.16776e-06
1.21307e-05
5.11765e-06
8.19728e-06
4.58094e-06
2.79503e-06
3.26126e-06
4.12443e-06
2.11915e-06
3.35177e-06
3.61669e-06
1.56838e-05
7.33679e-06
8.24695e-06
5.00369e-06
2.82625e-06
7.20276e-06
3.26815e-06
4.18751e-06
2.02785e-06
2.42152e-06
3.11835e-06
5.97459e-06
5.87101e-06
4.09374e-06
5.45463e-06
2.28825e-06
4.49759e-06
4.38192e-06
4.50892e-06
4.39234e-06
4.27273e-06
5.32031e-06
1.53201e-06
2.38869e-06
2.02885e-06
4.38798e-06
3.17972e-06
3.14298e-06
4.61567e-06
5.87645e-06
8.18088e-06
2.48341e-06
1.53815e-05
3.49683e-06
7.35227e-06
2.01314e-06
2.0408e-06
7.98183e-06
4.41293e-06
7.1389e-06
1.20123e-06
5.03343e-06
1.61257e-06
4.12601e-06
8.73748e-06
4.37849e-06
7.97173e-06
2.13557e-06
3.38137e-06
9.48623e-06
7.40262e-06
1.80226e-06
2.10222e-06
7.98889e-06
1.87983e-06
7.44814e-06
4.19782e-06
2.37156e-06
4.31705e-06
6.06441e-06
4.30905e-06
2.16843e-06
1.8986e-06
1.81294e-06
3.89762e-06
2.44299e-06
1.65628e-06
8.01374e-06
1.64513e-06
2.3931e-06
3.01363e-06
2.99431e-06
1.36541e-06
1.87293e-06
2.09622e-06
1.94762e-06
1.87618e-06
6.37913e-06
4.58628e-06
2.02767e-06
1.61999e-06
2.41284e-06
3.8865e-06
4.44973e-06
2.29839e-06
1.17349e-05
3.11811e-06
1.354e-06
3.45063e-06
1.81846e-06
2.9382e-06
1.37381e-06
2.41464e-06
2.10451e-06
2.63927e-06
2.14166e-06
1.7943e-06
3.19976e-06
1.36989e-06
2.43489e-06
2.08158e-06
1.3601e-06
2.17203e-06
1.89924e-06
3.16996e-06
2.6119e-06
2.37677e-06
1.60225e-06
1.90684e-06
5.49206e-06
1.87878e-06
3.14313e-06
2.97301e-06
1.18454e-06
1.89263e-06
2.04166e-06
2.73572e-06
2.42405e-06
3.23083e-06
3.19752e-06
3.2142e-06
1.94492e-06
1.61196e-06
1.86876e-06
3.22435e-06
2.1114e-06
2.96917e-06
6.15288e-06
2.3097e-06
2.39729e-06
2.38029e-06
2.64508e-06
1.66557e-06
1.82377e-06
2.06583e-06
5.73271e-06
2.08467e-06
2.18324e-06
2.43522e-06
3.1188e-06
3.17316e-06
2.05447e-06
1.9592e-06
3.05718e-06
6.44327e-06
2.08796e-06
2.72615e-06
2.15709e-06
1.86812e-06
2.0028e-06
2.10999e-06
2.88994e-06
2.3222e-06
2.3979e-06
1.97629e-06
6.4127e-06
2.16225e-06
3.29198e-06
2.10223e-06
2.66566e-06
1.94415e-06
2.91865e-06
2.58116e-06
2.11703e-06
2.09534e-06
1.91719e-06
7.06046e-06
2.25203e-06
2.06378e-06
6.28159e-06
2.12147e-06
2.90924e-06
2.12921e-06
6.4487e-06
1.41701e-06
2.0682e-06
6.58062e-06
2.52584e-06
2.39732e-06
7.42191e-07
2.22368e-06
7.06751e-07
7.00657e-07
8.93749e-07
2.53536e-06
2.26535e-06
1.33607e-06
7.84725e-07
2.32303e-06
6.06694e-07
6.68276e-07
6.84307e-07
2.51242e-06
2.31629e-06
7.8367e-07
6.80839e-07
6.22692e-06
6.7471e-07
6.65305e-07
7.01158e-07
1.8232e-06
1.90695e-06
6.86722e-07
7.04792e-07
1.86445e-06
2.28572e-06
6.8045e-07
7.16005e-07
1.82373e-06
6.01079e-07
2.02791e-06
7.4579e-07
5.74423e-07
1.80052e-06
1.454e-06
2.2702e-06
1.80636e-06
2.15356e-06
1.79089e-06
1.79456e-06
6.8231e-07
2.24737e-06
1.45239e-06
1.79556e-06
6.97875e-07
6.24265e-07
6.62717e-07
1.44627e-06
1.40138e-06
2.15258e-06
1.82851e-06
1.3994e-06
1.43932e-06
2.19226e-06
6.97732e-07
1.77726e-06
1.79162e-06
6.54258e-07
7.3397e-07
2.34895e-06
7.10392e-07
6.56982e-07
6.26314e-07
2.18926e-06
6.12493e-07
6.03901e-07
5.92831e-07
5.12031e-07
5.11667e-07
4.9467e-07
4.97016e-07
4.96269e-07
5.33079e-07
4.94191e-07
4.97855e-07
4.86862e-07
4.90626e-07
4.94649e-07
4.94954e-07
4.91922e-07
4.89615e-07
4.96354e-07
4.95189e-07
4.82188e-07
1.10854e-06
5.3299e-07
5.44763e-07
5.36655e-07
5.15417e-07
5.01772e-07
5.53774e-07
5.53774e-07
5.53774e-07
5.53774e-07
5.53774e-07
5.53774e-07
5.50785e-07
5.50785e-07
7.45291e-07
7.11668e-07
4.9897e-07

NodalForce_(N) 3 343 double
-3.62442e-08 8.48325e-09 1.66478e-09
-3.20659e-07 1.33153e-07 -9.70328e-08
0.000287675 2.25375e-05 0.000578462
-5.73379e-08 1.18646e-07 -8.68654e-08
2.32723e-07 5.16395e-07 -3.80289e-07
1.7966e-07 5.50271e-07 -4.03215e-07
-1.11447e-07 1.25109e-06 -8.62744e-07
-1.99227e-07 6.46095e-07 -4.72574e-07
2.44763e-07 6.98864e-07 -4.69162e-07
-7.35911e-08 3.13542e-07 -2.39793e-07
2.37199e-07 1.3497e-07 -6.2795e-08
6.58456e-07 7.00866e-07 -4.5086e-07
3.83422e-07 1.99876e-07 -1.2597e-07
4.32705e-07 1.1853e-07 -1.08726e-07
1.82566e-07 1.33554e-07 -6.49745e-08
-1.71925e-07 8.37175e-07 -5.59377e-07
-2.31127e-07 6.09487e-07 -4.35985e-07
1.44541e-07 1.13541e-07 -1.05674e-07
0.00079237 0.000625073 0.000335091
-8.03464e-09 3.11961e-08 -2.59902e-08
-1.21312e-08 6.25081e-07 -4.39355e-07
4.392e-07 1.48648e-06 -1.02222e-06
0.00176279 -0.000368986 0.000370186
-3.7309e-08 1.80199e-07 -7.3458e-08
1.63614e-08 6.46654e-07 -4.70032e-07
-1.70862e-07 2.71051e-07 -1.94232e-07
5.1783e-08 1.17902e-09 -1.68604e-08
8.2175e-08 1.4938e-07 -1.16381e-07
-1.68458e-07 4.43243e-08 -1.49478e-08
-4.93022e-07 7.17272e-08 -7.69776e-08
-4.42938e-07 2.71283e-07 -2.09257e-07
-6.73742e-07 2.17864e-06 -1.37934e-06
2.54969e-07 1.57836e-06 -9.9489e-07
-1.99745e-07 1.16118e-06 -7.55833e-07
-3.35687e-07 7.06467e-07 -4.62728e-07
-7.45902e-07 1.34406e-06 -9.24588e-07
-4.50985e-07 5.22875e-07 -3.72756e-07
-1.46261e-06 1.8408e-06 -1.20852e-06
1.61711e-07 1.89418e-07 -1.36349e-07
2.86614e-07 3.59246e-07 -2.39343e-07
3.01173e-07 2.74736e-07 -2.01686e-07
-3.46996e-07 6.89182e-07 -4.74431e-07
-1.29868e-07 1.35222e-07 -7.65868e-08
-1.13318e-07 4.2339e-08 -3.13435e-08
-4.11644e-07 3.17237e-07 -2.2928e-07
0.00105514 -9.16716e-06 -0.000349459
-1.04368e-07 5.14275e-08 -3.69505e-08
0.000378486 0.000585115 -0.000468177
7.27898e-08 1.37523e-07 -1.10356e-07
4.50698e-08 1.88264e-08 1.34545e-09
-4.859e-09 3.00592e-07 -1.62173e-07
2.52478e-08 5.84461e-07 -3.76419e-07
-2.8291e-07 8.04254e-08 -8.49944e-08
-8.27129e-08 9.49143e-08 -7.66172e-08
-3.37812e-08 4.51508e-08 -3.74521e-08
6.27304e-08 8.69981e-07 -5.21158e-07
0.000809943 -0.000251212 3.17009e-05
-8.2933e-08 1.92469e-08 3.72822e-10
0.00193342 -0.000598228 0.000684508
-5.42297e-08 3.98648e-07 -2.4889e-07
1.20881e-07 6.75558e-08 -2.70796e-08
1.91698e-07 6.68826e-07 -4.38714e-07
1.64911e-07 2.08225e-06 -1.39168e-06
2.83377e-08 1.05633e-06 -7.09967e-07
1.87881e-07 2.78861e-07 -2.13205e-07
-1.11063e-07 -9.61365e-10 -1.54067e-08
1.46637e-07 4.73917e-08 -3.87639e-08
2.51371e-07 5.9369e-07 -3.79474e-07
-1.91337e-07 6.13536e-07 -3.97588e-07
3.05297e-07 5.89566e-07 -4.1555e-07
-5.12301e-08 4.95883e-08 -2.04112e-08
1.23251e-07 4.14909e-08 -1.83726e-08
7.74754e-08 5.35925e-08 -4.13202e-08
5.99063e-08 2.9894e-07 -2.22077e-07
-2.46141e-08 1.28426e-07 -1.0877e-07
0.00134711 -0.00030619 -0.000494807
-2.78039e-08 2.89948e-07 -2.31152e-07
-2.31907e-08 6.47321e-09 1.62721e-10
-8.45195e-08 3.39296e-07 -1.69028e-07
-2.73101e-07 3.18339e-07 -2.29664e-07
-2.02495e-07 1.7055e-07 -1.30163e-07
-5.91874e-08 1.77635e-07 -6.301e-08
-2.74691e-07 7.96595e-07 -5.13145e-07
-2.06792e-07 1.11295e-07 -1.0111e-07
0.00120757 0.00034048 0.00021997
-6.87858e-08 2.11641e-09 2.41762e-09
0.00121182 -0.000140818 -0.000281076
0.0018229 -0.000241414 -0.000495496
0.0010494 0.000786631 -0.000564149
-1.05449e-07 4.46324e-08 -1.56559e-08
3.4023e-08 1.78992e-08 2.21713e-09
-1.34142e-07 3.4889e-07 -2.54938e-07
-7.95869e-10 2.11101e-07 -1.62392e-07
2.00255e-07 2.6015e-07 -1.39357e-07
1.17293e-06 2.05381e-06 -1.29405e-06
1.86322e-07 3.44929e-07 -2.56838e-07
2.01973e-07 5.94824e-07 -4.40562e-07
3.46156e-08 3.76846e-07 -2.42702e-07
0.00178696 0.000802382 -5.03143e-05
-4.52243e-07 7.08314e-07 -4.89049e-07
-2.41895e-08 3.31203e-07 -1.71945e-07
-1.75065e-07 5.81707e-07 -3.86258e-07
-6.29087e-08 2.62905e-08 -2.34201e-08
-5.06277e-07 6.85068e-07 -4.91693e-07
-1.12895e-08 2.85183e-08 -9.30537e-09
1.32838e-07 3.05246e-07 -2.22862e-07
-7.65319e-07 7.60641e-07 -5.53392e-07
3.95204e-07 6.17839e-07 -4.27799e-07
4.50675e-07 6.76211e-07 -4.73163e-07
4.03659e-08 4.71884e-09 -4.02854e-10
-3.72088e-07 3.67135e-07 -1.97222e-07
-8.28426e-07 5.84067e-07 -4.03195e-07
-5.2127e-07 5.81521e-07 -3.78154e-07
0.000667015 0.000383661 -0.000453918
7.79017e-08 3.87758e-07 -2.50543e-07
6.92337e-08 4.77839e-08 -4.75729e-08
-1.83125e-07 3.50805e-07 -2.22799e-07
-3.45915e-07 1.09736e-06 -7.23429e-07
-5.77099e-07 3.13229e-07 -2.18372e-07
2.24927e-07 2.38621e-07 -1.63814e-07
3.03447e-07 7.98287e-07 -5.2272e-07
1.54802e-07 8.77104e-07 -5.79973e-07
8.11153e-08 9.08796e-09 -1.68459e-08
0.00145034 0.000178848 0.000401298
4.02027e-08 5.35188e-09 -3.72369e-09
-6.22384e-08 3.41321e-07 -2.17353e-07
-4.95293e-07 2.89066e-07 -1.54202e-07
0.00166117 0.000461995 -0.000769406
2.10545e-09 6.52145e-09 2.86392e-10
-5.5423e-07 3.32177e-07 -2.47495e-07
-1.34776e-07 2.26153e-07 -1.55382e-07
-1.15595e-07 4.43159e-07 -2.77587e-07
2.7751e-07 2.28676e-07 -1.18638e-07
1.61662e-07 3.35471e-07 -1.81348e-07
0.00116027 -0.000183423 0.000424483
-2.64524e-08 2.56242e-10 -5.07616e-09
0.00145962 -0.000347251 0.000399213
1.07983e-07 2.75124e-07 -1.90801e-07
-1.28978e-07 3.55337e-07 -2.23814e-07
-4.50086e-07 9.50024e-07 -6.04922e-07
1.12289e-07 6.7293e-07 -3.66695e-07
2.12979e-07 2.42863e-07 -1.30161e-07
1.7695e-07 2.32898e-07 -1.50322e-07
2.17153e-07 4.46736e-07 -2.82745e-07
0.00105243 0.000555188 -0.000753933
4.67397e-07 3.44452e-07 -2.16293e-07
9.03054e-08 9.32008e-08 -7.25609e-08
-4.87504e-07 1.54942e-06 -1.01598e-06
-5.73006e-08 5.91442e-07 -3.70116e-07
-8.5155e-08 5.25189e-08 -3.91964e-08
-2.44172e-07 4.97059e-08 -5.0512e-08
1.01773e-08 6.11927e-10 -4.55448e-09
0.00231874 0.000720087 -1.55519e-05
-5.39211e-09 2.62153e-07 -1.63186e-07
-3.0157e-07 2.35942e-07 -1.75395e-07
-6.1644e-08 2.47729e-07 -1.32227e-07
0.00151343 0.000109177 -0.000676565
0.00093568 0.000832354 0.00179497
4.31626e-08 1.80984e-07 -9.86717e-08
1.68208e-07 6.03697e-07 -3.82976e-07
9.35624e-08 5.66641e-08 -3.91533e-08
-6.33747e-08 2.99777e-08 -2.3001e-08
-8.21761e-10 2.413e-07 -1.33471e-07
1.1451e-08 9.81163e-08 -5.28865e-08
-3.5195e-08 4.06996e-07 -2.4172e-07
-1.62737e-08 2.81256e-07 -1.53849e-07
-1.00289e-07 3.25289e-07 -1.79024e-07
-1.46497e-07 6.01706e-08 -2.95655e-08
-3.2625e-07 2.77754e-07 -1.57213e-07
-2.32581e-07 1.793e-07 -1.2271e-07
-1.87181e-07 1.43119e-07 -7.38607e-08
-3.40309e-07 5.8587e-07 -4.05431e-07
7.00473e-08 2.0988e-07 -1.43773e-07
6.6251e-08 5.8594e-08 -2.81676e-08
6.73111e-08 1.18238e-07 -6.42358e-08
4.89732e-08 5.00319e-08 -2.66666e-08
-1.28523e-07 2.09298e-07 -1.40503e-07
1.07167e-07 3.17961e-08 -1.6595e-08
-1.05653e-07 5.25131e-07 -3.31147e-07
0.00181815 -0.000117299 0.000273033
1.63117e-07 6.1111e-07 -3.63714e-07
-1.49987e-07 4.71724e-07 -2.54878e-07
8.03458e-09 6.02697e-07 -3.72747e-07
0.00139056 -0.000197199 -0.00030987
-1.1914e-08 2.70447e-08 -8.28566e-09
2.14859e-07 2.18432e-07 -1.34039e-07
2.81471e-07 4.70845e-07 -2.56993e-07
1.23135e-07 3.3178e-07 -1.80398e-07
-2.55457e-07 1.99304e-07 -1.5475e-07
-3.32672e-07 3.78977e-07 -2.78624e-07
-2.39174e-07 1.54921e-07 -1.21154e-07
-2.00751e-07 2.32077e-07 -1.68542e-07
1.333e-08 3.7023e-08 -2.09567e-08
-1.23834e-07 1.03094e-07 -5.41331e-08
5.40272e-08 3.24355e-08 -2.90769e-08
8.73766e-08 3.98433e-08 -3.49161e-08
-6.26713e-08 3.92477e-07 -2.32428e-07
-4.41424e-07 1.81421e-07 -1.30441e-07
-5.68203e-09 3.95839e-07 -2.5479e-07
-1.80359e-07 2.15652e-07 -1.1199e-07
-3.30572e-07 3.35328e-07 -2.37725e-07
0.00154036 -0.000322915 -9.66418e-05
-7.23375e-08 2.74518e-09 -9.55486e-09
0.00134825 -0.000631723 3.25449e-05
-2.09662e-07 8.09525e-08 -4.18224e-08
-3.35813e-07 1.19647e-07 -8.83183e-08
-2.33282e-07 3.50238e-07 -2.59589e-07
-1.24181e-07 2.35889e-07 -1.26703e-07
1.52448e-07 1.89516e-07 -1.48375e-07
1.57822e-07 1.5092e-07 -1.10353e-07
-5.37358e-08 1.56372e-09 -2.90983e-09
-3.29357e-08 2.93647e-07 -1.60952e-07
5.66241e-08 4.00394e-07 -2.49439e-07
-3.04624e-07 2.89583e-07 -2.18258e-07
1.45753e-07 1.71893e-07 -9.02274e-08
2.83859e-08 2.98188e-08 -2.25438e-08
1.60827e-07 3.71768e-07 -2.22217e-07
-3.67502e-08 8.08567e-08 -7.45913e-08
-1.13505e-07 1.66062e-07 -9.09075e-08
-2.7228e-07 4.76558e-07 -2.50172e-07
-1.48241e-07 1.31634e-07 -9.82623e-08
4.1015e-08 5.07013e-07 -3.22903e-07
-2.28372e-07 1.21687e-07 -9.00834e-08
2.16937e-07 2.99655e-07 -2.21859e-07
-1.53842e-07 3.73082e-08 -3.72236e-08
0.00164181 0.000292048 0.000736424
4.205e-09 9.20865e-08 -4.57004e-08
1.64857e-07 1.26503e-07 -8.43642e-08
-1.57623e-07 1.98637e-07 -1.68634e-07
-1.80465e-07 8.77682e-08 -7.22766e-08
1.13315e-07 8.61838e-08 -6.93527e-08
-2.27361e-08 1.81193e-07 -1.47451e-07
0.00202562 -0.00142585 8.67668e-05
0.00188947 0.000713661 -0.00115981
-1.54372e-07 1.15758e-07 -6.3669e-08
-3.18379e-07 3.61948e-07 -2.81132e-07
5.68924e-08 9.00869e-08 -6.78416e-08
-4.46892e-08 3.97458e-07 -2.51749e-07
-1.79325e-07 1.91156e-07 -1.54958e-07
9.13278e-08 1.80736e-07 -9.88571e-08
-1.35568e-07 4.60479e-07 -2.75058e-07
0.000828068 0.000732813 1.21924e-05
-2.55044e-07 3.30969e-07 -1.79376e-07
3.91478e-09 1.85828e-08 -8.15236e-09
0.000892737 -1.27883e-05 -0.000977519
-3.22509e-08 4.53183e-08 -2.23265e-08
0.00206417 -0.0011535 0.00014852
-2.05641e-07 4.27564e-07 -2.57151e-07
-1.19603e-07 2.54458e-07 -1.36427e-07
0.000787927 -0.00106953 0.000115073
-6.47396e-08 1.29483e-07 -6.7891e-08
0.000744418 0.00119351 -6.88339e-05
4.68781e-08 1.18819e-07 -8.05761e-08
-5.52098e-08 1.17936e-07 -8.14906e-08
-2.15347e-07 9.68868e-08 -5.14844e-08
7.92579e-08 4.34733e-07 -2.82035e-07
8.37993e-09 4.18053e-08 -2.16161e-08
0.000668814 -0.000166285 0.000800145
4.67756e-08 1.99001e-07 -1.57667e-07
6.99421e-08 4.17752e-08 -1.74319e-08
7.03268e-08 1.19435e-07 -7.90511e-08
0.000423388 -0.000433508 0.00103128
-2.69393e-07 2.60821e-07 -1.72702e-07
-2.2238e-07 3.51697e-07 -2.16583e-07
6.01817e-08 1.22429e-07 -8.33978e-08
-4.03093e-08 1.35144e-07 -7.16078e-08
-6.64692e-09 9.19572e-09 1.12993e-09
0.000994362 0.000531106 4.57457e-05
0.000670834 -0.000989212 0.000176873
0.000718304 -0.000983491 9.93511e-05
-2.50117e-07 2.73092e-07 -1.54872e-07
-7.00485e-08 1.0458e-07 -7.27181e-08
-1.93291e-07 7.9443e-08 -6.11797e-08
1.09524e-08 1.4009e-07 -7.57792e-08
0.00076599 0.000481931 0.000138004
0.000400566 0.000357123 -0.000521175
3.09026e-08 5.46203e-09 -2.43649e-09
4.28781e-08 7.28681e-09 -1.75671e-09
-1.21121e-07 2.57771e-07 -1.6804e-07
-6.29575e-09 9.78198e-09 5.15502e-10
0.000626913 -0.000206959 -0.00029846
-6.81354e-08 3.30968e-07 -1.97997e-07
-1.0779e-07 6.04618e-08 -3.68938e-08
6.15612e-08 4.11077e-07 -2.55252e-07
-1.47827e-08 2.0601e-09 -7.27308e-09
-5.61498e-08 2.70063e-07 -1.4978e-07
3.27567e-08 1.32451e-07 -7.13369e-08