# vtk DataFile Version 4.2
vtk output
ASCII
DATASET UNSTRUCTURED_GRID

POINTS 343 double
0.00161154 0.00421626 -2.06387e-05
0.00311683 0.00502404 0.0021352
0 0.00419538 0.00112517
0.00277457 0.00199116 0.00190654
0.0074471 0.00251152 0.00493881
0.00744397 0.00393241 0.00630327
0.010975 0.00492955 0.00486176
0.00896104 0.00497502 0.00358029
0.00984674 0.00342743 0.00678921
0.00717987 0.00509075 0.00490946
0.00602087 0.00120242 0.00992059
0.00760677 0.00218713 0.00780657
0.0060404 7.80984e-05 0.00824035
0.00289062 0.00204019 0.00799665
0.00616843 0.00261756 0.00991828
0.0100054 0.0065847 0.00681961
0.00922644 0.0063097 0.00506737
0.00324951 0.00222774 0.00510475
0 0.00143586 0.00417514
0.00228973 0.00349619 0.00400769
0.00985198 0.00333364 0.00304008
0.0111648 0.00237454 0.00492435
0 0.00270918 0.00154168
0.00599665 0.00151395 -7.21776e-05
0.00721823 0.00228996 0.00210845
0.00570459 0.00360535 0.00153253
0.00193524 2.44036e-05 0.00403551
0.00603628 7.86494e-05 0.00161318
0.00377248 0.00700235 -4.61863e-05
0.00277784 0.00808952 0.00190883
0.0058775 0.00632765 0.00157211
0.0115067 0.00814327 0.00784892
0.0114661 0.00497709 0.00787453
0.0120684 0.00624883 0.00579507
0.0143699 0.00901942 0.00401562
0.0108964 0.00778566 0.00482724
0.0123133 0.0101499 0.00401403
0.011475 0.00812978 0.00187589
0.005086 0.00310503 0.00689537
0.00638353 0.00374847 0.00824131
0.005606 0.00167874 0.00589843
0.00718958 0.00776494 0.00758439
0.00285102 0.00804546 0.00795341
0.00405195 0.0100502 0.00707531
0.00562155 0.00847436 0.00588615
0 0.00695361 0.00262895
0.00236165 0.00627048 0.00405755
0 0.0040177 0.00850214
0.00332192 0.00502919 0.00761936
0.00205569 0.00420083 0.00997386
0.0103156 0.00725874 0.009863
0.00879773 0.00609092 0.00830349
0.00294152 0.00798034 0.00470399
0.00436909 0.00700141 0.00641256
0.00227618 0.00610833 0.00589683
0.0143657 0.00598547 0.00812549
0 0.00718191 0.00711644
0.00227343 0.00580398 -2.89011e-05
0 0.00577432 0.00158701
0.0143668 0.00735629 0.00692863
0.00412044 0.00340368 0.00994532
0.014364 0.00162395 0.0039983
0.0115902 0.0021117 0.0018387
0.0120849 0.00367501 0.00384876
0.00536727 0.00172299 0.00406034
0.00216018 0.0100277 0.00578711
0.0040486 5.25823e-05 0.00707697
0.00879342 0.00429301 0.00826204
0.0143662 0.00745045 0.00401843
0.0123059 0.000157559 0.00401551
0.00481241 0.00293617 -5.82231e-05
0.00388372 0.00159118 0.00994869
0.00406371 5.30177e-05 0.00278058
0.00689892 0.00528763 0.00746553
0.00454319 0.00320765 0.00310922
0 0.00849157 0.00581511
0.00700401 0.00376646 0.00369815
0.00220887 0.00273782 -2.79882e-05
0.00833022 0.00842776 0.00988898
0.00859184 0.0101049 0.00839377
0.00604501 0.0100745 0.00823915
0.0057658 0.00857498 0.00992294
0.0143679 0.00866158 0.00563069
0.0045201 0.00689449 0.00309238
0 0.00748929 0.00137438
0.00196813 0.00751499 -2.51655e-05
0 0.00287343 0.00335182
0 0.00580816 0.00831736
0 0.00429792 0.00253898
0.00364294 0.00434525 -4.45777e-05
0.00205523 0.00584567 0.00997376
0.00743905 0.00656962 0.0063054
0.0051745 0.006578 0.00816686
0.00998652 0.00275458 0.00986769
0.0115311 0.00210589 0.00788602
0.0100188 0.000129253 0.00295852
0.00865159 0.00177626 0.00350537
0.0143643 0.00305761 0.00317655
0 0.00140616 0.00256446
0.00915909 0.00834108 0.00630409
0.00836383 0.0015444 -9.99337e-05
0.00867725 0.00366342 0.00149737
0.00452675 0.010056 0.00576652
0.0123044 0.01015 0.00567595
0.00367984 0.00145417 -4.49156e-05
0.00858933 0.000111513 0.00138924
0.00902787 0.0083998 0.00350407
0.0122977 0.000157474 0.00567732
0.00891745 0.00178788 0.0062522
0.00201266 0.00258961 0.00997429
0.0102345 0.00730917 -0.000123151
0.00742524 0.00778335 0.00207618
0.00854329 0.00620139 0.00149719
0 0.00686719 0.00578184
0.0143668 0.00159493 0.00239224
0.00254427 0.00364303 0.00637543
0.0143712 0.0086566 0.00244933
0.0120916 0.00633956 0.00398253
0.00859611 0.0101056 0.00138746
0.0100151 0.000128992 0.00679935
0.0143633 0.00162313 0.0056362
0.0120684 0.00372608 0.00590726
0.00215972 2.72308e-05 0.00578792
0 0.0013659 0.00748679
0.00196012 2.47887e-05 0.0075045
0.0143655 0.00704296 0.00559688
0.00836216 0.00859582 -0.000101439
0 0.0075208 0.00859127
0.00195551 0.00751154 0.00997505
0.00607627 0.00828183 0.00355052
0.012353 0.0101491 0.00735148
0.0143703 0.00879959 0.00733645
0.00829232 0.00169349 0.00989021
0.010431 0.0043194 0.0098614
0 0.0057735 0.00666667
0.00196099 0.0100251 0.00750357
0 0.00863025 0.00752641
0.0123467 0.0001596 0.00235669
0.0143676 0.00713042 0.00245514
0.0121625 0.00649289 0.00201512
0.0122322 0.00597557 0.00983836
0.0107623 0.00151241 0.00985784
0.0123459 0.000159195 0.00735345
0.0143651 0.00155357 0.00729849
0 0.00143551 0.00581971
0.00858478 0.000110909 0.00839491
0.00604941 7.85953e-05 0.00332409
0.011408 0.00485196 0.00189609
0.0143655 0.00447935 0.00236679
0.00606996 0.0100747 0.00658819
0.00406593 0.0100501 0.00277914
0.00188035 2.39648e-05 0.00239427
0 0.00727418 0.00419576
0.0143645 0.00595136 0.00647959
0.010026 0.0101225 0.00295651
0.0107912 0.00876796 0.00985649
0 0.00574334 0.00336387
0 0.0043297 0.00416652
0.00987032 0.00590702 0.00986897
0.0143629 0.00320573 0.00672946
0.0060648 7.86836e-05 0.00658991
0.00355255 0.010044 0.00856526
0.0107641 0.00150578 -0.000127965
0.00829391 0.00676999 0.00988964
0.0143695 0.00769409 0.00839772
0.0123765 0.00770427 0.00983582
0.00994148 0.00315026 -0.000118405
0.00482992 0.00580586 -5.86374e-05
0.0108272 0.00876388 -0.000129723
0.0108094 0.0101317 0.00125525
0.00831263 0.00697158 -0.000100397
0.0100265 0.00649667 0.00290909
0.0108025 0.000140619 0.00125645
0.00413634 0.00505096 0.00994525
0.00621584 0.00591156 0.00991724
0.00621451 0.00424482 0.00991743
0.0108063 0.0101303 0.00847459
0.00354943 4.58162e-05 0.00856657
0.0143653 0.00592209 0.00318865
0 0.00302218 0.00691532
0.0143649 0.0041998 0.00830909
0.0122269 0.00417363 -0.000144529
0.0143681 0.00289391 0.00137449
0 0.00244495 0.00857025
0.00350625 0.0086141 0.00995359
0.0107989 0.000139851 0.0084761
0.0121999 0.00277876 0.00983872
0.0127223 0.00435411 0.00983118
0.00814835 0.0100997 0.005729
0.00745066 0.00767681 0.00493777
0.00810941 0.0100992 0.00411211
0.010022 0.0101223 0.00679787
0.00433541 0.00697036 0.00994247
0.0059851 0.00440722 -7.20203e-05
0.00406713 5.2624e-05 0.00435347
0.00452304 5.88117e-05 0.00576873
0.0143694 0.00437757 0.000959042
0.00522429 0.00840348 0.00152261
0.0143637 0.00451049 0.0039886
0.00958551 0.00589401 -0.000115294
0.0123538 0.01015 0.0023552
0 0.00848692 0.00262374
0.00193545 0.0100251 0.00403469
0 0.00885053 0.00419359
0.00602647 0.00892591 -7.3568e-05
0.00604075 0.0100743 0.00161182
0.00718195 0.00488354 0.00228991
0.0103803 0.0046536 -0.000123774
0.00810259 0.000104831 0.00411464
0.00814198 0.000105381 0.00573101
0.00188019 0.0100241 0.0023933
0.0123243 0.00260407 -0.000145985
0.0143632 0.00470252 0.00703171
0.0102286 0.010125 0.00487043
0.00824832 0.00346853 0.00989039
0.00352615 4.62354e-05 0.00131234
0.014366 0.00263042 0.0083769
0.00343446 0.00483521 0.00495609
0.00838437 0.00443754 -0.000100286
0.0119628 0.00595721 -0.000141495
0.00787268 0.0100964 0.0071186
0.0143625 0.00451082 0.00565009
0.00776548 0.0100952 0.00267796
0.0102217 0.000131563 0.00487209
0.0040695 0.0100503 0.00435141
0 0.00452174 0.00721958
0.00649152 0.00730104 0.00991342
0.00786629 0.000101811 0.00711977
0.00517199 0.00514037 0.0035304
0.00610624 0.0100748 0.00492957
0.00610097 7.94128e-05 0.00493214
0.00526817 0.00528396 0.00610775
0 0.005744 0.00499998
0 0.00433013 0.00583333
0.00718567 0.00583581 -8.65307e-05
0.00716129 0.00643006 0.00346346
0.00775895 0.000100552 0.00267988
0.0143641 0.00592142 0.00481878
0.00529737 0.00647581 0.00477638
0.00825006 0.00510342 0.00989028
0.0143692 0.00595216 0.00141907
0 0.00666667 0
0.0123585 0.00767272 -0.000146329
0.00478555 6.30353e-05 -5.78476e-05
0 0.01 0.00666667
0.0071838 0.0100872 0.00990452
0 0.00288419 0.00499914
0.0143717 0.00766387 0.00120661
0.014375 0.00684232 -0.000165306
0 0.005 0.01
0.00718288 0.00297729 -8.60624e-05
0 0.005 0
0.0143702 0.000192283 0.00315905
0.0143772 0.0101647 0.00647867
0.00602849 0.00735064 -7.31932e-05
0.014363 0.00306855 0.00481869
0.00718383 9.4485e-05 -8.65168e-05
0 0 0.00666667
0.005452 0.00368651 0.00515716
0.00717817 9.27409e-05 0.00990571
0.0143688 0.000191731 0.00648089
0 0 0.005
0.0126321 0.0101522 0.00106892
0.0143763 0.00894941 0.00105292
0.0143687 0.000191694 0.00481942
0.014374 0.00518046 -0.000164141
0.00174765 0.00124257 -2.21439e-05
0 0.00122008 0.00122008
0 0.00333333 0.01
0 0.00666667 0.01
0.0126317 0.00893308 -0.000149548
0.0143781 0.0101642 0.00315655
0.00605415 0.0100742 0.00332188
0.0143738 0.0068418 0.0098015
0 0.00333333 0
0 0.00122008 0.00877992
0.00174604 2.21087e-05 0.00875823
0.00174587 0.0012421 0.00997769
0.0126282 0.0101508 0.00861274
0.00174677 0.00880204 0.00997757
0 0.00877992 0.00877992
0.0143736 0.00894809 0.00858605
0.00959042 0.0101169 -0.00011675
0.0143709 0.00141017 0.00105298
0.00174717 0.0100221 0.00875755
0.0126275 0.00893103 0.00983154
0.0143724 0.00517905 0.0098021
0 0 0.00333333
0.00958295 0.00012552 -0.000114802
0.0126244 0.000165033 0.00106934
0.00173539 2.23038e-05 0.00118975
0 0.00877992 0.00122008
0.00174684 0.00880265 -2.24093e-05
0.00173501 0.0100221 0.00118887
0.0143683 0.00140867 0.00858684
0.0126222 0.00138356 0.00983266
0.00957677 0.000123884 0.00987392
0.0126265 0.00138539 -0.000149063
0.0126211 0.00016385 0.00861438
0.014374 0.00351788 -0.000163839
0.00478486 0.0100583 0.0099363
0.00352758 0.0100437 0.00131121
0.00958424 0.0101156 0.00987283
0.0143713 0.00351583 0.00980195
0 0.01 0.005
0.00376549 0.00853487 -4.64008e-05
0.0143768 0.0101644 0.00481897
0 0.01 0.00333333
0 0.00166667 0
0.0143734 0.000192161 0.00149791
0 0.00166667 0.01
0 0.00833333 0
0.0143792 0.00850518 -0.00016591
0.0143709 0.000191368 0.00814274
0.0143816 0.0101661 0.0014977
0.014379 0.0101649 0.00814098
0.00238864 0.0100292 0.0099689
0 0.01 0.00833333
0.0119925 0.0101444 -0.000143397
0.0119847 0.000157762 -0.000142531
0.01198 0.000155883 0.00984206
0.0119874 0.0101427 0.00984074
0 0 0.00833333
0.0143771 0.0085022 0.00980243
0.00238913 3.1565e-05 -2.97841e-05
0 0 0.00166667
0.00478836 0.0100592 -5.89293e-05
0.0143723 0.00185474 0.0098032
0.0143754 0.0018568 -0.000164661
0.00238634 3.06167e-05 0.00996955
0.00238911 0.0100299 -3.03399e-05
0 0.01 0.00166667
0.0143826 0.0101666 0.00980382
0 0 0.01
0.0143861 0.0101671 -0.000167201
0.0143749 0.000190188 0.00980581
0 0.01 0.01
0.0143786 0.000191916 -0.000166251
0 0.01 0
0 0 0
0.00718919 0.010088 -8.81712e-05
0.00478097 6.17421e-05 0.00993708
0 0.00833333 0.01

CELLS 343 686
1 0
1 1
1 2
1 3
1 4
1 5
1 6
1 7
1 8
1 9
1 10
1 11
1 12
1 13
1 14
1 15
1 16
1 17
1 18
1 19
1 20
1 21
1 22
1 23
1 24
1 25
1 26
1 27
1 28
1 29
1 30
1 31
1 32
1 33
1 34
1 35
1 36
1 37
1 38
1 39
1 40
1 41
1 42
1 43
1 44
1 45
1 46
1 47
1 48
1 49
1 50
1 51
1 52
1 53
1 54
1 55
1 56
1 57
1 58
1 59
1 60
1 61
1 62
1 63
1 64
1 65
1 66
1 67
1 68
1 69
1 70
1 71
1 72
1 73
1 74
1 75
1 76
1 77
1 78
1 79
1 80
1 81
1 82
1 83
1 84
1 85
1 86
1 87
1 88
1 89
1 90
1 91
1 92
1 93
1 94
1 95
1 96
1 97
1 98
1 99
1 100
1 101
1 102
1 103
1 104
1 105
1 106
1 107
1 108
1 109
1 110
1 111
1 112
1 113
1 114
1 115
1 116
1 117
1 118
1 119
1 120
1 121
1 122
1 123
1 124
1 125
1 126
1 127
1 128
1 129
1 130
1 131
1 132
1 133
1 134
1 135
1 136
1 137
1 138
1 139
1 140
1 141
1 142
1 143
1 144
1 145
1 146
1 147
1 148
1 149
1 150
1 151
1 152
1 153
1 154
1 155
1 156
1 157
1 158
1 159
1 160
1 161
1 162
1 163
1 164
1 165
1 166
1 167
1 168
1 169
1 170
1 171
1 172
1 173
1 174
1 175
1 176
1 177
1 178
1 179
1 180
1 181
1 182
1 183
1 184
1 185
1 186
1 187
1 188
1 189
1 190
1 191
1 192
1 193
1 194
1 195
1 196
1 197
1 198
1 199
1 200
1 201
1 202
1 203
1 204
1 205
1 206
1 207
1 208
1 209
1 210
1 211
1 212
1 213
1 214
1 215
1 216
1 217
1 218
1 219
1 220
1 221
1 222
1 223
1 224
1 225
1 226
1 227
1 228
1 229
1 230
1 231
1 232
1 233
1 234
1 235
1 236
1 237
1 238
1 239
1 240
1 241
1 242
1 243
1 244
1 245
1 246
1 247
1 248
1 249
1 250
1 251
1 252
1 253
1 254
1 255
1 256
1 257
1 258
1 259
1 260
1 261
1 262
1 263
1 264
1 265
1 266
1 267
1 268
1 269
1 270
1 271
1 272
1 273
1 274
1 275
1 276
1 277
1 278
1 279
1 280
1 281
1 282
1 283
1 284
1 285
1 286
1 287
1 288
1 289
1 290
1 291
1 292
1 293
1 294
1 295
1 296
1 297
1 298
1 299
1 300
1 301
1 302
1 303
1 304
1 305
1 306
1 307
1 308
1 309
1 310
1 311
1 312
1 313
1 314
1 315
1 316
1 317
1 318
1 319
1 320
1 321
1 322
1 323
1 324
1 325
1 326
1 327
1 328
1 329
1 330
1 331
1 332
1 333
1 334
1 335
1 336
1 337
1 338
1 339
1 340
1 341
1 342

CELL_TYPES 343
1
1
1
1
1
1
1
1
1
1
1
1
1
1
1
1
1
1
1
1
1
1
1
1
1
1
1
1
1
1
1
1
1
1
1
1
1
1
1
1
1
1
1
1
1
1
1
1
1
1
1
1
1
1
1
1
1
1
1
1
1
1
1
1
1
1
1
1
1
1
1
1
1
1
1
1
1
1
1
1
1
1
1
1
1
1
1
1
1
1
1
1
1
1
1
1
1
1
1
1
1
1
1
1
1
1
1
1
1
1
1
1
1
1
1
1
1
1
1
1
1
1
1
1
1
1
1
1
1
1
1
1
1
1
1
1
1
1
1
1
1
1
1
1
1
1
1
1
1
1
1
1
1
1
1
1
1
1
1
1
1
1
1
1
1
1
1
1
1
1
1
1
1
1
1
1
1
1
1
1
1
1
1
1
1
1
1
1
1
1
1
1
1
1
1
1
1
1
1
1
1
1
1
1
1
1
1
1
1
1
1
1
1
1
1
1
1
1
1
1
1
1
1
1
1
1
1
1
1
1
1
1
1
1
1
1
1
1
1
1
1
1
1
1
1
1
1
1
1
1
1
1
1
1
1
1
1
1
1
1
1
1
1
1
1
1
1
1
1
1
1
1
1
1
1
1
1
1
1
1
1
1
1
1
1
1
1
1
1
1
1
1
1
1
1
1
1
1
1
1
1
1
1
1
1
1
1
1
1
1
1
1
1
1
1
1
1
1
1
1
1
1
1
1
1
1
1
1
1
1
1
1
1
1
1
1
1
1
1
1
1
1
1

POINT_DATA 343
FIELD FieldData 8

NodeID_(#) 1 343 int
0
1
2
3
4
5
6
7
8
9
10
11
12
13
14
15
16
17
18
19
20
21
22
23
24
25
26
27
28
29
30
31
32
33
34
35
36
37
38
39
40
41
42
43
44
45
46
47
48
49
50
51
52
53
54
55
56
57
58
59
60
61
62
63
64
65
66
67
68
69
70
71
72
73
74
75
76
77
78
79
80
81
82
83
84
85
86
87
88
89
90
91
92
93
94
95
96
97
98
99
100
101
102
103
104
105
106
107
108
109
110
111
112
113
114
115
116
117
118
119
120
121
122
123
124
125
126
127
128
129
130
131
132
133
134
135
136
137
138
139
140
141
142
143
144
145
146
147
148
149
150
151
152
153
154
155
156
157
158
159
160
161
162
163
164
165
166
167
168
169
170
171
172
173
174
175
176
177
178
179
180
181
182
183
184
185
186
187
188
189
190
191
192
193
194
195
196
197
198
199
200
201
202
203
204
205
206
207
208
209
210
211
212
213
214
215
216
217
218
219
220
221
222
223
224
225
226
227
228
229
230
231
232
233
234
235
236
237
238
239
240
241
242
243
244
245
246
247
248
249
250
251
252
253
254
255
256
257
258
259
260
261
262
263
264
265
266
267
268
269
270
271
272
273
274
275
276
277
278
279
280
281
282
283
284
285
286
287
288
289
290
291
292
293
294
295
296
297
298
299
300
301
302
303
304
305
306
307
308
309
310
311
312
313
314
315
316
317
318
319
320
321
322
323
324
325
326
327
328
329
330
331
332
333
334
335
336
337
338
339
340
341
342

Component_(#) 1 343 int
0
0
0
0
0
0
0
0
0
0
0
0
0
0
0
0
0
0
0
0
0
0
0
0
0
0
0
0
0
0
0
0
0
0
0
0
0
0
0
0
0
0
0
0
0
0
0
0
0
0
0
0
0
0
0
0
0
0
0
0
0
0
0
0
0
0
0
0
0
0
0
0
0
0
0
0
0
0
0
0
0
0
0
0
0
0
0
0
0
0
0
0
0
0
0
0
0
0
0
0
0
0
0
0
0
0
0
0
0
0
0
0
0
0
0
0
0
0
0
0
0
0
0
0
0
0
0
0
0
0
0
0
0
0
0
0
0
0
0
0
0
0
0
0
0
0
0
0
0
0
0
0
0
0
0
0
0
0
0
0
0
0
0
0
0
0
0
0
0
0
0
0
0
0
0
0
0
0
0
0
0
0
0
0
0
0
0
0
0
0
0
0
0
0
0
0
0
0
0
0
0
0
0
0
0
0
0
0
0
0
0
0
0
0
0
0
0
0
0
0
0
0
0
0
0
0
0
0
0
0
0
0
0
0
0
0
0
0
0
0
0
0
0
0
0
0
0
0
0
0
0
0
0
0
0
0
0
0
0
0
0
0
0
0
0
0
0
0
0
0
0
0
0
0
0
0
0
0
0
0
0
0
0
0
0
0
0
0
0
0
0
0
0
0
0
0
0
0
0
0
0
0
0
0
0
0
0
0
0
0
0
0
0
0
0
0
0
0
0
0
0
0
0
0
0
0
0
0
0
0
0
0
0
0
0
0
0
0
0
0
0
0
0

NodalMass_(kg) 1 343 double
3.15563e-06
1.41304e-05
2.20912e-06
1.71484e-05
8.42e-06
9.09306e-06
1.01179e-05
7.52198e-06
6.81096e-06
5.58223e-06
3.10888e-06
1.07575e-05
4.87011e-06
1.64955e-05
3.0246e-06
8.05984e-06
6.703e-06
1.0877e-05
4.18978e-06
8.16106e-06
6.14143e-06
1.17902e-05
2.23114e-06
4.25176e-06
1.09915e-05
7.41467e-06
4.21871e-06
3.92484e-06
3.08766e-06
1.31268e-05
7.72627e-06
1.65404e-05
1.19037e-05
7.97564e-06
3.81683e-06
1.11001e-05
3.81317e-06
1.39137e-05
6.37414e-06
8.00975e-06
7.6712e-06
1.21135e-05
1.6399e-05
2.78633e-06
8.93599e-06
2.58087e-06
7.57362e-06
4.23241e-06
1.31286e-05
3.80168e-06
2.7746e-06
7.16776e-06
1.21307e-05
5.11765e-06
8.19728e-06
4.58094e-06
2.79503e-06
3.26126e-06
4.12443e-06
2.11915e-06
3.35177e-06
3.61669e-06
1.56838e-05
7.33679e-06
8.24695e-06
5.00369e-06
2.82625e-06
7.20276e-06
3.26815e-06
4.18751e-06
2.02785e-06
2.42152e-06
3.11835e-06
5.97459e-06
5.87101e-06
4.09374e-06
5.45463e-06
2.28825e-06
4.49759e-06
4.38192e-06
4.50892e-06
4.39234e-06
4.27273e-06
5.32031e-06
1.53201e-06
2.38869e-06
2.02885e-06
4.38798e-06
3.17972e-06
3.14298e-06
4.61567e-06
5.87645e-06
8.18088e-06
2.48341e-06
1.53815e-05
3.49683e-06
7.35227e-06
2.01314e-06
2.0408e-06
7.98183e-06
4.41293e-06
7.1389e-06
1.20123e-06
5.03343e-06
1.61257e-06
4.12601e-06
8.73748e-06
4.37849e-06
7.97173e-06
2.13557e-06
3.38137e-06
9.48623e-06
7.40262e-06
1.80226e-06
2.10222e-06
7.98889e-06
1.87983e-06
7.44814e-06
4.19782e-06
2.37156e-06
4.31705e-06
6.06441e-06
4.30905e-06
2.16843e-06
1.8986e-06
1.81294e-06
3.89762e-06
2.44299e-06
1.65628e-06
8.01374e-06
1.64513e-06
2.3931e-06
3.01363e-06
2.99431e-06
1.36541e-06
1.87293e-06
2.09622e-06
1.94762e-06
1.87618e-06
6.37913e-06
4.58628e-06
2.02767e-06
1.61999e-06
2.41284e-06
3.8865e-06
4.44973e-06
2.29839e-06
1.17349e-05
3.11811e-06
1.354e-06
3.45063e-06
1.81846e-06
2.9382e-06
1.37381e-06
2.41464e-06
2.10451e-06
2.63927e-06
2.14166e-06
1.7943e-06
3.19976e-06
1.36989e-06
2.43489e-06
2.08158e-06
1.3601e-06
2.17203e-06
1.89924e-06
3.16996e-06
2.6119e-06
2.37677e-06
1.60225e-06
1.90684e-06
5.49206e-06
1.87878e-06
3.14313e-06
2.97301e-06
1.18454e-06
1.89263e-06
2.04166e-06
2.73572e-06
2.42405e-06
3.23083e-06
3.19752e-06
3.2142e-06
1.94492e-06
1.61196e-06
1.86876e-06
3.22435e-06
2.1114e-06
2.96917e-06
6.15288e-06
2.3097e-06
2.39729e-06
2.38029e-06
2.64508e-06
1.66557e-06
1.82377e-06
2.06583e-06
5.73271e-06
2.08467e-06
2.18324e-06
2.43522e-06
3.1188e-06
3.17316e-06
2.05447e-06
1.9592e-06
3.05718e-06
6.44327e-06
2.08796e-06
2.72615e-06
2.15709e-06
1.86812e-06
2.0028e-06
2.10999e-06
2.88994e-06
2.3222e-06
2.3979e-06
1.97629e-06
6.4127e-06
2.16225e-06
3.29198e-06
2.10223e-06
2.66566e-06
1.94415e-06
2.91865e-06
2.58116e-06
2.11703e-06
2.09534e-06
1.91719e-06
7.06046e-06
2.25203e-06
2.06378e-06
6.28159e-06
2.12147e-06
2.90924e-06
2.12921e-06
6.4487e-06
1.41701e-06
2.0682e-06
6.58062e-06
2.52584e-06
2.39732e-06
7.42191e-07
2.22368e-06
7.06751e-07
7.00657e-07
8.93749e-07
2.53536e-06
2.26535e-06
1.33607e-06
7.84725e-07
2.32303e-06
6.06694e-07
6.68276e-07
6.84307e-07
2.51242e-06
2.31629e-06
7.8367e-07
6.80839e-07
6.22692e-06
6.7471e-07
6.65305e-07
7.01158e-07
1.8232e-06
1.90695e-06
6.86722e-07
7.04792e-07
1.86445e-06
2.28572e-06
6.8045e-07
7.16005e-07
1.82373e-06
6.01079e-07
2.02791e-06
7.4579e-07
5.74423e-07
1.80052e-06
1.454e-06
2.2702e-06
1.80636e-06
2.15356e-06
1.79089e-06
1.79456e-06
6.8231e-07
2.24737e-06
1.45239e-06
1.79556e-06
6.97875e-07
6.24265e-07
6.62717e-07
1.44627e-06
1.40138e-06
2.15258e-06
1.82851e-06
1.3994e-06
1.43932e-06
2.19226e-06
6.97732e-07
1.77726e-06
1.79162e-06
6.54258e-07
7.3397e-07
2.34895e-06
7.10392e-07
6.56982e-07
6.26314e-07
2.18926e-06
6.12493e-07
6.03901e-07
5.92831e-07
5.12031e-07
5.11667e-07
4.9467e-07
4.97016e-07
4.96269e-07
5.33079e-07
4.94191e-07
4.97855e-07
4.86862e-07
4.90626e-07
4.94649e-07
4.94954e-07
4.91922e-07
4.89615e-07
4.96354e-07
4.95189e-07
4.82188e-07
1.10854e-06
5.3299e-07
5.44763e-07
5.36655e-07
5.15417e-07
5.01772e-07
5.53774e-07
5.53774e-07
5.53774e-07
5.53774e-07
5.53774e-07
5.53774e-07
5.50785e-07
5.50785e-07
7.45291e-07
7.11668e-07
4.9897e-07

NodalForce_(N) 3 343 double
9.26511e-08 -2.38627e-09 6.92967e-09
5.65697e-07 -4.68566e-08 2.04861e-07
0.000238247 6.91605e-06 0.00058032
4.40942e-07 -8.81633e-08 1.84232e-07
-2.60034e-07 -4.15398e-07 1.02909e-06
-6.22266e-07 -3.64395e-07 1.21316e-06
5.90759e-08 -8.84212e-07 2.96399e-06
4.93652e-07 -4.12012e-07 1.42438e-06
-7.64384e-07 -5.547e-07 1.66433e-06
9.85198e-09 -1.78567e-07 6.38501e-07
-5.8602e-07 -1.4751e-07 3.64161e-07
-1.61232e-06 -6.40401e-07 1.70272e-06
-7.2923e-07 -2.59624e-07 5.24174e-07
-6.61838e-07 -9.36396e-08 2.43244e-07
-5.38049e-07 -1.15114e-07 3.74647e-07
-5.47138e-07 -5.4668e-07 2.0495e-06
9.86477e-08 -3.74374e-07 1.37101e-06
-8.61859e-08 -6.31843e-08 2.21221e-07
0.000819608 0.000603137 0.000374696
6.83545e-08 -6.85004e-09 5.99295e-08
4.37696e-07 -4.97456e-07 1.43008e-06
-4.68931e-07 -1.3218e-06 3.57849e-06
0.00177655 -0.00032432 0.000383044
5.26571e-07 -1.80873e-07 4.25636e-07
8.17524e-07 -5.79649e-07 1.51728e-06
6.84286e-07 -1.80068e-07 6.83083e-07
-2.11986e-08 -6.16144e-09 3.26062e-08
1.9783e-07 -1.67457e-07 3.94209e-07
3.59042e-07 -9.29295e-09 1.14413e-07
5.80431e-07 7.24211e-09 1.72494e-07
8.91303e-07 -9.57424e-08 7.42757e-07
-1.60907e-06 -1.61699e-06 5.68071e-06
-1.82289e-06 -1.16815e-06 4.01683e-06
-1.42575e-07 -8.20965e-07 2.85391e-06
5.26539e-07 -5.59369e-07 1.82464e-06
6.33624e-07 -9.35849e-07 3.20763e-06
5.64808e-07 -4.47203e-07 1.40161e-06
3.09417e-06 -1.26473e-06 4.53671e-06
-3.41337e-07 -1.15318e-07 3.81399e-07
-9.43518e-07 -2.28954e-07 9.68439e-07
-4.22629e-07 -2.58422e-07 4.85218e-07
-7.99842e-07 -4.55101e-07 1.75663e-06
-4.17553e-07 -8.75467e-08 2.611e-07
-1.10337e-08 -3.51529e-08 1.01656e-07
7.08444e-08 -1.99588e-07 6.21696e-07
0.00101831 -4.89606e-05 -0.000345116
1.02839e-07 -2.33152e-08 7.14617e-08
0.000437365 0.000562133 -0.000442023
-3.91227e-07 -4.45873e-08 2.90517e-07
-1.40042e-07 -6.93906e-09 2.66439e-08
-5.40592e-07 -2.22858e-07 8.31121e-07
-9.38271e-07 -3.83527e-07 1.56684e-06
1.45009e-07 3.45066e-09 1.8116e-07
-6.16844e-08 -3.23258e-08 2.01668e-07
-5.11592e-08 -1.2319e-08 8.15263e-08
-6.45968e-07 -6.86336e-07 2.26495e-06
0.000769985 -0.000253339 1.57325e-05
1.70245e-07 -4.95327e-09 2.81006e-08
0.00191716 -0.000599641 0.000688071
-1.10542e-07 -3.09757e-07 1.04133e-06
-4.029e-07 -4.26896e-08 1.92629e-07
3.44038e-09 -6.43587e-07 1.7204e-06
1.88101e-06 -1.89434e-06 5.09057e-06
3.09041e-07 -8.50108e-07 2.57595e-06
-8.22672e-08 -2.49694e-07 4.63001e-07
2.50317e-08 -8.58776e-09 4.16262e-08
-1.92042e-07 -6.99163e-08 9.52145e-08
-1.11816e-06 -4.25335e-07 1.56057e-06
3.60066e-07 -4.66826e-07 1.55743e-06
-1.33104e-07 -6.17096e-07 1.51925e-06
2.47321e-07 -3.22464e-08 1.29673e-07
-3.05554e-07 -4.8161e-08 1.23775e-07
-1.016e-08 -6.80064e-08 1.06444e-07
-5.20636e-07 -1.69538e-07 7.8059e-07
1.41436e-07 -7.4993e-08 2.33383e-07
0.00128623 -0.000322399 -0.000491677
1.72299e-07 -1.90546e-07 6.07998e-07
9.53631e-08 -4.87951e-09 1.64452e-08
-7.35402e-07 -2.64132e-07 9.55749e-07
-3.42417e-07 -2.78452e-07 9.59434e-07
-2.506e-07 -1.38741e-07 5.1312e-07
-5.26999e-07 -1.40639e-07 4.87609e-07
1.77204e-07 -6.25027e-07 2.06848e-06
2.44685e-07 -2.85076e-08 2.16695e-07
0.00118628 0.000361804 0.000195717
1.07529e-07 5.51958e-09 8.69365e-09
0.00120864 -0.00010955 -0.000301101
0.0019262 -0.000223356 -0.00049586
0.00106276 0.000769988 -0.000568914
3.20165e-07 -2.27546e-08 1.09728e-07
-1.86476e-07 -5.21418e-09 3.55521e-08
-1.96807e-07 -1.9735e-07 8.00097e-07
-6.1743e-07 -9.77468e-08 6.57747e-07
-6.48023e-07 -2.35933e-07 6.93892e-07
-3.11877e-06 -1.91287e-06 5.16857e-06
8.21075e-08 -3.69472e-07 8.48431e-07
1.51679e-07 -5.48121e-07 1.31139e-06
1.4688e-07 -3.30981e-07 9.57382e-07
0.00177645 0.000783357 -6.80724e-05
-1.26227e-07 -5.01096e-07 1.66488e-06
7.25143e-07 -3.29701e-07 8.37493e-07
9.4448e-07 -4.44343e-07 1.42233e-06
2.35325e-08 -2.37075e-08 5.56577e-08
2.80121e-07 -6.07266e-07 1.86564e-06
1.31905e-07 -2.68359e-08 6.24114e-08
3.39078e-07 -3.38263e-07 8.18023e-07
1.02676e-06 -5.08021e-07 1.7251e-06
-5.35507e-07 -6.47039e-07 1.59587e-06
-8.61981e-07 -6.32912e-07 1.54512e-06
-8.1447e-08 -1.44436e-09 1.46405e-08
9.62367e-07 -2.31565e-07 9.44688e-07
1.42021e-06 -3.2756e-07 1.37227e-06
1.27509e-06 -3.13635e-07 1.44539e-06
0.000723871 0.00038631 -0.000412626
1.84996e-07 -3.73711e-07 9.97354e-07
-1.15249e-07 -2.17296e-08 9.92454e-08
4.08424e-07 -2.70674e-07 9.04829e-07
6.16567e-07 -7.64212e-07 2.61379e-06
9.71679e-07 -2.58257e-07 8.53166e-07
-4.01069e-07 -2.63982e-07 5.86432e-07
-3.86449e-07 -7.73393e-07 2.06577e-06
-4.29357e-07 -7.01095e-07 2.16632e-06
-7.905e-08 -1.74504e-08 3.32672e-08
0.00146695 0.000200718 0.00037966
-5.2449e-08 -1.24086e-08 4.72074e-09
2.72814e-08 -2.60472e-07 8.7565e-07
1.05903e-06 -1.81618e-07 7.75771e-07
0.00166865 0.00047043 -0.000747922
-6.15865e-08 -8.60337e-09 1.69154e-08
6.10298e-07 -1.84055e-07 6.13109e-07
-5.75051e-08 -2.02314e-07 6.33901e-07
-1.17917e-07 -3.50737e-07 1.1835e-06
-7.63489e-07 -2.23422e-07 6.16094e-07
-7.33182e-07 -2.61737e-07 9.0305e-07
0.00108462 -0.000175374 0.00040961
-1.56396e-08 5.26186e-10 9.86662e-09
0.00147212 -0.000371709 0.000377673
1.12757e-07 -2.90358e-07 7.10069e-07
3.55806e-07 -2.60725e-07 8.96437e-07
1.22812e-06 -6.426e-07 2.28177e-06
-1.07608e-06 -5.18165e-07 1.78411e-06
-5.91629e-07 -2.39793e-07 6.38954e-07
-3.43251e-07 -2.48943e-07 6.01789e-07
-4.36189e-07 -4.41952e-07 1.16749e-06
0.0010785 0.000545785 -0.000737544
-9.80223e-07 -3.9639e-07 9.01807e-07
-1.45312e-08 -1.09395e-07 1.87323e-07
1.92341e-06 -1.1425e-06 3.71869e-06
4.48555e-07 -4.83057e-07 1.47561e-06
3.45409e-10 -4.46764e-08 1.22606e-07
2.43366e-07 -4.93827e-08 1.19294e-07
1.23962e-08 -2.89378e-10 4.84678e-09
0.00235509 0.000751583 -3.6476e-05
-7.47522e-08 -2.03586e-07 6.66371e-07
4.38075e-07 -1.99923e-07 6.01988e-07
-3.7044e-07 -2.02896e-07 6.88259e-07
0.0015151 0.000144854 -0.000678718
0.000926439 0.000825636 0.00176933
-3.83905e-07 -1.29791e-07 5.02255e-07
-3.84348e-07 -5.23411e-07 1.54874e-06
-1.42257e-07 -7.19453e-08 1.14864e-07
-8.7966e-08 -2.32577e-08 9.2488e-08
4.02384e-07 -2.36255e-07 6.22618e-07
-2.45781e-07 -6.54121e-08 2.91081e-07
-2.72296e-07 -3.20557e-07 1.07858e-06
-3.90947e-07 -2.21802e-07 7.58853e-07
6.66646e-07 -2.66616e-07 8.31069e-07
3.74632e-07 -1.74377e-08 1.75388e-07
7.58593e-07 -1.93543e-07 7.3945e-07
4.38724e-07 -1.48529e-07 4.88606e-07
4.67236e-07 -7.91826e-08 3.76405e-07
7.10766e-07 -3.61361e-07 1.3504e-06
1.99113e-07 -2.28903e-07 5.54354e-07
-3.43493e-07 -4.38417e-08 1.93813e-07
-4.70982e-07 -7.28187e-08 3.94354e-07
-1.98084e-07 -3.48436e-08 1.57378e-07
-1.75045e-07 -1.8594e-07 6.07204e-07
-1.79777e-07 -5.09192e-08 6.32422e-08
3.46458e-07 -4.02301e-07 1.29677e-06
0.00180413 -0.000131134 0.000252291
-6.00044e-07 -5.09058e-07 1.58822e-06
8.38659e-07 -3.73309e-07 1.18769e-06
5.40528e-07 -5.34403e-07 1.51836e-06
0.00139448 -0.000181714 -0.000330696
-1.29041e-07 -2.26984e-08 7.77696e-08
-4.77304e-07 -2.43294e-07 5.67782e-07
-9.42201e-07 -4.25435e-07 1.2352e-06
-5.61582e-07 -2.71763e-07 8.67648e-07
8.71592e-08 -1.75016e-07 4.77611e-07
1.87814e-07 -2.23672e-07 7.80516e-07
2.35551e-07 -1.33181e-07 3.58537e-07
-2.7414e-08 -2.02589e-07 6.0947e-07
-2.49593e-07 -1.36398e-08 1.66227e-07
4.29735e-07 -5.83343e-08 2.87059e-07
-4.35752e-08 -4.31126e-08 5.13824e-08
-9.9132e-08 -5.54502e-08 7.20447e-08
4.49089e-07 -3.19596e-07 9.81948e-07
6.85617e-07 -9.41565e-08 4.56563e-07
1.15981e-07 -3.20633e-07 9.9507e-07
5.50208e-07 -1.28693e-07 5.44025e-07
5.79837e-07 -2.85511e-07 9.07256e-07
0.00149628 -0.000282549 -7.52065e-05
4.34474e-08 -9.68304e-09 2.13477e-08
0.00133931 -0.000638237 1.07902e-07
4.00314e-07 -5.02735e-08 2.23327e-07
4.87019e-07 -1.06467e-07 3.14515e-07
6.45149e-07 -1.92185e-07 8.41208e-07
5.06027e-07 -1.69358e-07 5.90432e-07
-8.06036e-08 -2.12269e-07 4.09671e-07
-2.23005e-07 -1.72034e-07 3.31146e-07
5.16285e-08 -6.50361e-09 4.74469e-09
4.69676e-07 -2.59846e-07 7.49431e-07
-2.27757e-07 -3.24359e-07 1.02769e-06
2.52439e-07 -2.5047e-07 7.47565e-07
-5.19736e-07 -1.41604e-07 4.77883e-07
6.71235e-08 -3.154e-08 6.74536e-08
-4.31754e-07 -3.4279e-07 9.68134e-07
2.25441e-08 -2.75265e-08 1.5703e-07
4.4431e-07 -1.1303e-07 4.34051e-07
9.58517e-07 -3.15661e-07 1.19532e-06
-4.88565e-08 -1.14355e-07 3.46726e-07
-9.70232e-08 -4.10587e-07 1.2854e-06
3.08376e-07 -1.01235e-07 2.92681e-07
-2.12301e-07 -3.22031e-07 7.39034e-07
1.1417e-07 -3.61183e-08 7.98523e-08
0.00166014 0.000302956 0.000711521
-3.09318e-07 -6.04867e-08 2.94266e-07
-2.96576e-07 -1.46328e-07 2.981e-07
2.44715e-07 -8.59387e-08 3.63352e-07
1.2317e-07 -7.87048e-08 1.84882e-07
-1.12274e-07 -1.06042e-07 1.52728e-07
-1.33071e-07 -7.94682e-08 3.76191e-07
0.00200084 -0.00141714 7.63352e-05
0.00193717 0.000723434 -0.00115607
4.33805e-07 -4.81509e-08 3.29974e-07
4.7274e-07 -1.87204e-07 7.51306e-07
3.55669e-08 -1.00315e-07 2.12261e-07
7.46793e-08 -3.04153e-07 9.92475e-07
1.15085e-07 -7.39739e-08 3.53509e-07
-5.06617e-07 -1.24653e-07 5.32967e-07
5.34461e-07 -3.47498e-07 1.14034e-06
0.000798434 0.000737422 -9.39253e-06
7.25059e-07 -2.30055e-07 8.54012e-07
6.18836e-08 -3.11928e-08 5.53079e-08
0.000881431 3.98113e-06 -0.000982606
-1.17615e-07 -4.97748e-08 1.57636e-07
0.00202551 -0.00117076 0.000149933
6.04036e-07 -3.10529e-07 1.08421e-06
4.31468e-07 -1.87735e-07 6.52161e-07
0.000796502 -0.0010617 0.000105746
3.82712e-07 -1.0146e-07 3.43886e-07
0.000735182 0.00118946 -7.47604e-05
1.16666e-08 -1.27415e-07 3.17306e-07
1.52263e-08 -1.07869e-07 3.3431e-07
4.7242e-07 -4.20224e-08 2.841e-07
-4.27581e-08 -3.78321e-07 1.1102e-06
1.00265e-07 -5.69774e-08 1.21149e-07
0.000678643 -0.00016535 0.000799713
-8.57997e-08 -1.12371e-07 3.61804e-07
-1.59371e-07 -4.46747e-08 1.10823e-07
-1.08597e-07 -1.26963e-07 3.17814e-07
0.000437707 -0.000416864 0.00102802
5.60695e-07 -2.16856e-07 7.19749e-07
5.68142e-07 -2.71983e-07 9.1928e-07
-5.04014e-08 -1.30219e-07 3.27392e-07
2.046e-07 -1.02752e-07 3.42379e-07
5.15901e-08 -1.00732e-08 9.26772e-09
0.0010006 0.00050598 7.04211e-05
0.000686995 -0.000997631 0.000163125
0.000737881 -0.000980818 8.15902e-05
6.36177e-07 -1.99171e-07 7.27108e-07
1.23251e-07 -9.12924e-08 2.88839e-07
2.10157e-07 -7.0899e-08 1.59855e-07
-1.60814e-07 -1.11247e-07 3.77185e-07
0.000749078 0.00049784 0.000123242
0.000413669 0.000362377 -0.000525012
-4.59657e-08 -1.06562e-08 1.09977e-08
-7.67431e-08 -6.28305e-09 1.24332e-08
-1.81354e-07 -2.3544e-07 7.48636e-07
-6.3347e-08 -9.75805e-09 1.89841e-08
0.000634779 -0.000227067 -0.000289871
-2.0337e-07 -2.73112e-07 9.00044e-07
2.17756e-07 -4.93196e-08 1.7425e-07
3.52467e-07 -4.07249e-07 1.06473e-06
-2.28695e-08 -2.58049e-09 1.93768e-08
-3.31607e-07 -2.30072e-07 7.47688e-07
-1.72389e-07 -1.09872e-07 3.50581e-07