# vtk DataFile Version 4.2
vtk output
ASCII
DATASET UNSTRUCTURED_GRID

POINTS 343 double
0.00161213 0.00421629 -2.06564e-05
0.00311788 0.00502408 0.00213524
0 0.00419538 0.00112517
0.0027755 0.0019912 0.00190656
0.00744907 0.00251163 0.00493936
0.00744566 0.00393249 0.00630388
0.0109778 0.00492971 0.00486308
0.00896367 0.00497514 0.00358113
0.00984887 0.00342755 0.00679032
0.00718177 0.00509083 0.00490998
0.00602171 0.0012025 0.00992107
0.00760823 0.00218722 0.00780728
0.00604151 7.81885e-05 0.00824083
0.0028912 0.00204022 0.00799669
0.00616928 0.00261763 0.00991879
0.0100075 0.00658483 0.00682077
0.00922879 0.00630982 0.0050683
0.00325037 0.00222778 0.00510483
0 0.00143586 0.00417514
0.0022904 0.00349622 0.00400771
0.00985498 0.00333379 0.00304109
0.0111677 0.00237471 0.0049257
0 0.00270918 0.00154168
0.00599898 0.00151407 -7.18442e-05
0.00722066 0.00229007 0.002109
0.00570659 0.00360541 0.00153288
0.00193581 2.44458e-05 0.00403553
0.00603839 7.88053e-05 0.00161355
0.00377401 0.00700241 -4.60928e-05
0.00277879 0.00808957 0.00190886
0.00587956 0.00632773 0.00157247
0.0115089 0.00814342 0.00785047
0.0114683 0.00497724 0.00787606
0.0120712 0.006249 0.00579668
0.0143737 0.0090197 0.00401774
0.0108992 0.00778581 0.00482855
0.0123166 0.0101502 0.00401567
0.0114786 0.00812997 0.00187728
0.00508713 0.00310508 0.00689563
0.00638469 0.00374854 0.00824183
0.00560738 0.00167882 0.00589871
0.00719098 0.00776501 0.00758504
0.0028516 0.00804548 0.00795346
0.00405284 0.0100503 0.00707546
0.00562293 0.00847443 0.00588647
0 0.00695361 0.00262895
0.00236234 0.00627051 0.00405758
0 0.0040177 0.00850214
0.00332263 0.00502923 0.00761945
0.00205604 0.00420086 0.00997386
0.0103171 0.00725885 0.00986431
0.00879929 0.00609101 0.00830447
0.00294234 0.00798038 0.00470404
0.00437013 0.00700146 0.00641272
0.00227674 0.00610836 0.00589686
0.0143685 0.00598569 0.00812771
0 0.00718191 0.00711644
0.0022743 0.00580401 -2.8901e-05
0 0.00577432 0.00158701
0.0143699 0.00735653 0.00693083
0.00412095 0.00340371 0.00994553
0.0143679 0.0016242 0.00400039
0.0115939 0.0021119 0.00184007
0.0120882 0.0036752 0.00385031
0.00536881 0.00172307 0.00406058
0.00216072 0.0100277 0.00578713
0.00404952 5.2652e-05 0.0070771
0.00879501 0.0042931 0.00826301
0.01437 0.00745071 0.00402055
0.0123093 0.000157793 0.0040171
0.00481432 0.00293625 -5.80281e-05
0.0038842 0.00159122 0.00994888
0.00406499 5.31143e-05 0.0027807
0.00690029 0.0052877 0.00746611
0.00454458 0.00320771 0.00310938
0 0.00849157 0.00581511
0.00700608 0.00376655 0.00369864
0.0022097 0.00273784 -2.79896e-05
0.00833135 0.00842785 0.00988989
0.00859332 0.010105 0.00839474
0.00604608 0.0100746 0.00823964
0.00576657 0.00857504 0.00992339
0.0143712 0.00866184 0.00563286
0.00452151 0.00689455 0.00309255
0 0.00748929 0.00137438
0.00196887 0.00751503 -2.51815e-05
0 0.00287343 0.00335182
0 0.00580816 0.00831736
0 0.00429792 0.00253898
0.0036444 0.0043453 -4.44891e-05
0.00205555 0.00584569 0.00997376
0.00744074 0.0065697 0.00630602
0.00517544 0.00657805 0.0081672
0.00998803 0.00275469 0.00986891
0.0115334 0.00210604 0.00788755
0.0100219 0.000129462 0.00295955
0.00865417 0.0017764 0.00350615
0.0143683 0.00305786 0.00317862
0 0.00140616 0.00256446
0.00916114 0.00834119 0.00630505
0.00836703 0.00154456 -9.92356e-05
0.00868022 0.00366354 0.00149817
0.00452788 0.0100561 0.00576673
0.0123073 0.0101503 0.00567763
0.0036813 0.00145424 -4.48112e-05
0.00859231 0.000111704 0.00139002
0.00903051 0.00839994 0.00350495
0.0123007 0.000157696 0.00567896
0.0089195 0.00178801 0.00625308
0.00201301 0.00258964 0.00997429
0.0102383 0.00730934 -0.000122057
0.00742773 0.00778345 0.00207678
0.00854622 0.00620151 0.00149798
0 0.00686719 0.00578184
0.014371 0.00159519 0.00239427
0.00254487 0.00364306 0.00637546
0.0143753 0.00865688 0.00245141
0.0120949 0.00633974 0.00398409
0.00859905 0.0101057 0.00138829
0.0100173 0.00012916 0.00680048
0.0143667 0.00162337 0.00563834
0.0120712 0.00372625 0.00590887
0.00216027 2.7267e-05 0.00578794
0 0.0013659 0.00748679
0.00196055 2.48069e-05 0.0075045
0.0143689 0.00704321 0.00559904
0.00836534 0.00859598 -0.000100689
0 0.0075208 0.00859127
0.00195583 0.00751154 0.00997507
0.00607811 0.00828192 0.00355086
0.0123554 0.0101494 0.00735322
0.0143732 0.00879985 0.00733868
0.00829349 0.00169361 0.00989109
0.0104326 0.00431952 0.00986272
0 0.0057735 0.00666667
0.00196142 0.0100251 0.00750357
0 0.00863025 0.00752641
0.0123505 0.000159851 0.00235823
0.0143717 0.0071307 0.00245721
0.0121663 0.0064931 0.00201665
0.0122341 0.00597572 0.00984008
0.0107639 0.00151255 0.00985923
0.0123485 0.000159402 0.00735514
0.0143681 0.00155379 0.00730067
0 0.00143551 0.00581971
0.00858632 0.000111039 0.00839583
0.00605127 7.87282e-05 0.00332442
0.0114117 0.00485214 0.00189744
0.0143697 0.00447959 0.00236883
0.0060713 0.0100748 0.0065886
0.00406722 0.0100502 0.00277928
0.00188096 2.40155e-05 0.00239426
0 0.00727418 0.00419576
0.0143677 0.00595158 0.00648177
0.0100289 0.0101227 0.0029576
0.0107928 0.00876809 0.00985791
0 0.00574334 0.00336387
0 0.0043297 0.00416652
0.00987175 0.00590712 0.00987019
0.014366 0.00320595 0.00673165
0.00606617 7.87859e-05 0.00659028
0.00355317 0.010044 0.00856541
0.010768 0.00150598 -0.000126802
0.00829507 0.00677008 0.00989056
0.0143722 0.00769433 0.00839995
0.0123784 0.00770443 0.00983758
0.00994516 0.00315043 -0.000117396
0.00483186 0.00580593 -5.84305e-05
0.0108311 0.00876409 -0.000128484
0.010813 0.0101319 0.00125654
0.00831579 0.00697171 -9.96561e-05
0.0100296 0.00649682 0.00291016
0.0108062 0.000140857 0.00125765
0.00413688 0.00505097 0.00994548
0.00621666 0.00591161 0.00991778
0.00621535 0.00424486 0.00991798
0.0108081 0.0101305 0.00847602
0.00355008 4.58555e-05 0.00856669
0.0143693 0.00592232 0.00319072
0 0.00302218 0.00691532
0.0143676 0.00420001 0.0083113
0.0122313 0.00417384 -0.000143054
0.0143725 0.00289417 0.00137649
0 0.00244495 0.00857025
0.00350671 0.00861412 0.00995377
0.0108009 0.000140017 0.00847749
0.0122019 0.00277891 0.00984043
0.0127243 0.00435428 0.009833
0.00815028 0.0100999 0.00572975
0.00745261 0.0076769 0.00493836
0.00811167 0.0100993 0.00411281
0.0100241 0.0101225 0.00679905
0.00433599 0.00697041 0.00994274
0.00598746 0.00440729 -7.16519e-05
0.00406828 5.27019e-05 0.0043536
0.00452419 5.88959e-05 0.00576889
0.014374 0.00437782 0.000961031
0.00522614 0.00840357 0.00152291
0.0143675 0.00451073 0.00399071
0.00958907 0.00589416 -0.000114341
0.0123575 0.0101503 0.00235682
0 0.00848692 0.00262374
0.001936 0.0100251 0.00403471
0 0.00885053 0.00419359
0.00602884 0.00892603 -7.31655e-05
0.00604286 0.0100744 0.00161223
0.00718432 0.00488363 0.00229045
0.0103841 0.00465376 -0.000122676
0.00810491 0.000104991 0.0041153
0.00814396 0.000105531 0.00573171
0.0018808 0.0100242 0.0023933
0.0123286 0.0026043 -0.000144503
0.0143663 0.00470274 0.0070339
0.0102311 0.0101252 0.00487161
0.00824949 0.0034686 0.00989127
0.00352741 4.6337e-05 0.00131242
0.0143687 0.00263063 0.0083791
0.00343539 0.00483525 0.00495619
0.00838755 0.00443766 -9.95367e-05
0.011967 0.00595743 -0.000140051
0.00787429 0.0100965 0.00711935
0.0143659 0.00451105 0.00565225
0.00776794 0.0100954 0.00267862
0.0102244 0.000131758 0.00487322
0.00407065 0.0100504 0.00435154
0 0.00452174 0.00721958
0.00649239 0.0073011 0.009914
0.00786794 0.000101944 0.00712047
0.00517354 0.00514043 0.00353063
0.00610785 0.0100749 0.00492994
0.00610261 7.95286e-05 0.00493247
0.00526945 0.00528402 0.00610802
0 0.005744 0.00499998
0 0.00433013 0.00583333
0.00718845 0.00583592 -8.5974e-05
0.00716345 0.00643014 0.00346397
0.00776143 0.000100722 0.00268049
0.0143677 0.00592164 0.00482092
0.00529882 0.00647587 0.00477662
0.00825122 0.00510349 0.00989118
0.0143736 0.00595241 0.00142108
0 0.00666667 0
0.0123628 0.00767296 -0.000144785
0.00478745 6.31319e-05 -5.7628e-05
0 0.01 0.00666667
0.00718473 0.0100873 0.00990522
0 0.00288419 0.00499914
0.0143762 0.00766416 0.00120863
0.0143798 0.0068426 -0.00016332
0 0.005 0.01
0.00718566 0.00297741 -8.55318e-05
0 0.005 0
0.0143743 0.000192561 0.0031611
0.0143803 0.010165 0.00648088
0.00603086 0.00735074 -7.28009e-05
0.0143666 0.00306879 0.00482082
0.00718661 9.4645e-05 -8.59947e-05
0 0 0.00666667
0.00545343 0.00368657 0.00515742
0.00717919 9.28668e-05 0.00990641
0.0143721 0.000191987 0.00648304
0 0 0.005
0.0126361 0.0101525 0.00107059
0.0143808 0.00894972 0.00105495
0.0143724 0.000191963 0.00482153
0.0143788 0.00518074 -0.000162175
0.00174829 0.00124259 -2.21497e-05
0 0.00122008 0.00122008
0 0.00333333 0.01
0 0.00666667 0.01
0.012636 0.00893336 -0.000147927
0.014382 0.0101646 0.00315866
0.006056 0.0100743 0.00332223
0.0143761 0.00684202 0.00980373
0 0.00333333 0
0 0.00122008 0.00877992
0.00174638 2.2126e-05 0.00875826
0.00174617 0.00124212 0.00997769
0.0126304 0.0101511 0.00861459
0.00174706 0.00880205 0.00997759
0 0.00877992 0.00877992
0.0143762 0.00894834 0.00858829
0.00959396 0.0101171 -0.000115727
0.0143755 0.00141045 0.00105496
0.0017475 0.0100221 0.00875759
0.0126294 0.00893121 0.00983337
0.0143748 0.00517924 0.00980432
0 0 0.00333333
0.00958653 0.000125722 -0.000113862
0.0126285 0.000165296 0.00107092
0.00173599 2.23496e-05 0.00118977
0 0.00877992 0.00122008
0.0017475 0.0088027 -2.24168e-05
0.00173562 0.0100221 0.00118889
0.014371 0.0014089 0.00858904
0.0126242 0.00138375 0.00983446
0.00957819 0.000124056 0.00987509
0.0126309 0.00138563 -0.000147524
0.0126234 0.000164054 0.00861617
0.0143788 0.00351814 -0.000161894
0.00478546 0.0100583 0.00993663
0.00352886 0.0100437 0.00131132
0.00958558 0.0101158 0.00987401
0.0143736 0.00351604 0.00980415
0 0.01 0.005
0.00376702 0.00853496 -4.62888e-05
0.0143803 0.0101647 0.00482112
0 0.01 0.00333333
0 0.00166667 0
0.0143779 0.000192451 0.0014999
0 0.00166667 0.01
0 0.00833333 0
0.0143839 0.00850551 -0.000163916
0.0143737 0.000191611 0.00814494
0.0143859 0.0101665 0.00149976
0.0143817 0.0101652 0.00814324
0.002389 0.0100293 0.00996898
0 0.01 0.00833333
0.0119967 0.0101447 -0.000141884
0.011989 0.000158023 -0.000141125
0.0119819 0.000156082 0.00984373
0.0119892 0.0101429 0.00984243
0 0 0.00833333
0.0143794 0.00850243 0.00980467
0.00239003 3.16182e-05 -2.97434e-05
0 0 0.00166667
0.00479028 0.0100593 -5.86868e-05
0.0143747 0.00185496 0.00980541
0.0143803 0.00185708 -0.000162729
0.00238674 3.06501e-05 0.00996961
0.00239003 0.01003 -3.02936e-05
0 0.01 0.00166667
0.0143849 0.0101669 0.00980607
0 0 0.01
0.0143908 0.0101675 -0.000165175
0.0143774 0.000190436 0.00980802
0 0.01 0.01
0.0143834 0.000192208 -0.000164325
0 0.01 0
0 0 0
0.00719198 0.0100882 -8.7589e-05
0.00478161 6.18353e-05 0.0099374
0 0.00833333 0.01

CELLS 343 686
1 0
1 1
1 2
1 3
1 4
1 5
1 6
1 7
1 8
1 9
1 10
1 11
1 12
1 13
1 14
1 15
1 16
1 17
1 18
1 19
1 20
1 21
1 22
1 23
1 24
1 25
1 26
1 27
1 28
1 29
1 30
1 31
1 32
1 33
1 34
1 35
1 36
1 37
1 38
1 39
1 40
1 41
1 42
1 43
1 44
1 45
1 46
1 47
1 48
1 49
1 50
1 51
1 52
1 53
1 54
1 55
1 56
1 57
1 58
1 59
1 60
1 61
1 62
1 63
1 64
1 65
1 66
1 67
1 68
1 69
1 70
1 71
1 72
1 73
1 74
1 75
1 76
1 77
1 78
1 79
1 80
1 81
1 82
1 83
1 84
1 85
1 86
1 87
1 88
1 89
1 90
1 91
1 92
1 93
1 94
1 95
1 96
1 97
1 98
1 99
1 100
1 101
1 102
1 103
1 104
1 105
1 106
1 107
1 108
1 109
1 110
1 111
1 112
1 113
1 114
1 115
1 116
1 117
1 118
1 119
1 120
1 121
1 122
1 123
1 124
1 125
1 126
1 127
1 128
1 129
1 130
1 131
1 132
1 133
1 134
1 135
1 136
1 137
1 138
1 139
1 140
1 141
1 142
1 143
1 144
1 145
1 146
1 147
1 148
1 149
1 150
1 151
1 152
1 153
1 154
1 155
1 156
1 157
1 158
1 159
1 160
1 161
1 162
1 163
1 164
1 165
1 166
1 167
1 168
1 169
1 170
1 171
1 172
1 173
1 174
1 175
1 176
1 177
1 178
1 179
1 180
1 181
1 182
1 183
1 184
1 185
1 186
1 187
1 188
1 189
1 190
1 191
1 192
1 193
1 194
1 195
1 196
1 197
1 198
1 199
1 200
1 201
1 202
1 203
1 204
1 205
1 206
1 207
1 208
1 209
1 210
1 211
1 212
1 213
1 214
1 215
1 216
1 217
1 218
1 219
1 220
1 221
1 222
1 223
1 224
1 225
1 226
1 227
1 228
1 229
1 230
1 231
1 232
1 233
1 234
1 235
1 236
1 237
1 238
1 239
1 240
1 241
1 242
1 243
1 244
1 245
1 246
1 247
1 248
1 249
1 250
1 251
1 252
1 253
1 254
1 255
1 256
1 257
1 258
1 259
1 260
1 261
1 262
1 263
1 264
1 265
1 266
1 267
1 268
1 269
1 270
1 271
1 272
1 273
1 274
1 275
1 276
1 277
1 278
1 279
1 280
1 281
1 282
1 283
1 284
1 285
1 286
1 287
1 288
1 289
1 290
1 291
1 292
1 293
1 294
1 295
1 296
1 297
1 298
1 299
1 300
1 301
1 302
1 303
1 304
1 305
1 306
1 307
1 308
1 309
1 310
1 311
1 312
1 313
1 314
1 315
1 316
1 317
1 318
1 319
1 320
1 321
1 322
1 323
1 324
1 325
1 326
1 327
1 328
1 329
1 330
1 331
1 332
1 333
1 334
1 335
1 336
1 337
1 338
1 339
1 340
1 341
1 342

CELL_TYPES 343
1
1
1
1
1
1
1
1
1
1
1
1
1
1
1
1
1
1
1
1
1
1
1
1
1
1
1
1
1
1
1
1
1
1
1
1
1
1
1
1
1
1
1
1
1
1
1
1
1
1
1
1
1
1
1
1
1
1
1
1
1
1
1
1
1
1
1
1
1
1
1
1
1
1
1
1
1
1
1
1
1
1
1
1
1
1
1
1
1
1
1
1
1
1
1
1
1
1
1
1
1
1
1
1
1
1
1
1
1
1
1
1
1
1
1
1
1
1
1
1
1
1
1
1
1
1
1
1
1
1
1
1
1
1
1
1
1
1
1
1
1
1
1
1
1
1
1
1
1
1
1
1
1
1
1
1
1
1
1
1
1
1
1
1
1
1
1
1
1
1
1
1
1
1
1
1
1
1
1
1
1
1
1
1
1
1
1
1
1
1
1
1
1
1
1
1
1
1
1
1
1
1
1
1
1
1
1
1
1
1
1
1
1
1
1
1
1
1
1
1
1
1
1
1
1
1
1
1
1
1
1
1
1
1
1
1
1
1
1
1
1
1
1
1
1
1
1
1
1
1
1
1
1
1
1
1
1
1
1
1
1
1
1
1
1
1
1
1
1
1
1
1
1
1
1
1
1
1
1
1
1
1
1
1
1
1
1
1
1
1
1
1
1
1
1
1
1
1
1
1
1
1
1
1
1
1
1
1
1
1
1
1
1
1
1
1
1
1
1
1
1
1
1
1
1
1
1
1
1
1
1
1
1
1
1
1
1
1
1
1
1
1
1

POINT_DATA 343
FIELD FieldData 8

NodeID_(#) 1 343 int
0
1
2
3
4
5
6
7
8
9
10
11
12
13
14
15
16
17
18
19
20
21
22
23
24
25
26
27
28
29
30
31
32
33
34
35
36
37
38
39
40
41
42
43
44
45
46
47
48
49
50
51
52
53
54
55
56
57
58
59
60
61
62
63
64
65
66
67
68
69
70
71
72
73
74
75
76
77
78
79
80
81
82
83
84
85
86
87
88
89
90
91
92
93
94
95
96
97
98
99
100
101
102
103
104
105
106
107
108
109
110
111
112
113
114
115
116
117
118
119
120
121
122
123
124
125
126
127
128
129
130
131
132
133
134
135
136
137
138
139
140
141
142
143
144
145
146
147
148
149
150
151
152
153
154
155
156
157
158
159
160
161
162
163
164
165
166
167
168
169
170
171
172
173
174
175
176
177
178
179
180
181
182
183
184
185
186
187
188
189
190
191
192
193
194
195
196
197
198
199
200
201
202
203
204
205
206
207
208
209
210
211
212
213
214
215
216
217
218
219
220
221
222
223
224
225
226
227
228
229
230
231
232
233
234
235
236
237
238
239
240
241
242
243
244
245
246
247
248
249
250
251
252
253
254
255
256
257
258
259
260
261
262
263
264
265
266
267
268
269
270
271
272
273
274
275
276
277
278
279
280
281
282
283
284
285
286
287
288
289
290
291
292
293
294
295
296
297
298
299
300
301
302
303
304
305
306
307
308
309
310
311
312
313
314
315
316
317
318
319
320
321
322
323
324
325
326
327
328
329
330
331
332
333
334
335
336
337
338
339
340
341
342

Component_(#) 1 343 int
0
0
0
0
0
0
0
0
0
0
0
0
0
0
0
0
0
0
0
0
0
0
0
0
0
0
0
0
0
0
0
0
0
0
0
0
0
0
0
0
0
0
0
0
0
0
0
0
0
0
0
0
0
0
0
0
0
0
0
0
0
0
0
0
0
0
0
0
0
0
0
0
0
0
0
0
0
0
0
0
0
0
0
0
0
0
0
0
0
0
0
0
0
0
0
0
0
0
0
0
0
0
0
0
0
0
0
0
0
0
0
0
0
0
0
0
0
0
0
0
0
0
0
0
0
0
0
0
0
0
0
0
0
0
0
0
0
0
0
0
0
0
0
0
0
0
0
0
0
0
0
0
0
0
0
0
0
0
0
0
0
0
0
0
0
0
0
0
0
0
0
0
0
0
0
0
0
0
0
0
0
0
0
0
0
0
0
0
0
0
0
0
0
0
0
0
0
0
0
0
0
0
0
0
0
0
0
0
0
0
0
0
0
0
0
0
0
0
0
0
0
0
0
0
0
0
0
0
0
0
0
0
0
0
0
0
0
0
0
0
0
0
0
0
0
0
0
0
0
0
0
0
0
0
0
0
0
0
0
0
0
0
0
0
0
0
0
0
0
0
0
0
0
0
0
0
0
0
0
0
0
0
0
0
0
0
0
0
0
0
0
0
0
0
0
0
0
0
0
0
0
0
0
0
0
0
0
0
0
0
0
0
0
0
0
0
0
0
0
0
0
0
0
0
0
0
0
0
0
0
0
0
0
0
0
0
0
0
0
0
0
0
0

NodalMass_(kg) 1 343 double
3.15563e-06
1.41304e-05
2.20912e-06
1.71484e-05
8.42e-06
9.09306e-06
1.01179e-05
7.52198e-06
6.81096e-06
5.58223e-06
3.10888e-06
1.07575e-05
4.87011e-06
1.64955e-05
3.0246e-06
8.05984e-06
6.703e-06
1.0877e-05
4.18978e-06
8.16106e-06
6.14143e-06
1.17902e-05
2.23114e-06
4.25176e-06
1.09915e-05
7.41467e-06
4.21871e-06
3.92484e-06
3.08766e-06
1.31268e-05
7.72627e-06
1.65404e-05
1.19037e-05
7.97564e-06
3.81683e-06
1.11001e-05
3.81317e-06
1.39137e-05
6.37414e-06
8.00975e-06
7.6712e-06
1.21135e-05
1.6399e-05
2.78633e-06
8.93599e-06
2.58087e-06
7.57362e-06
4.23241e-06
1.31286e-05
3.80168e-06
2.7746e-06
7.16776e-06
1.21307e-05
5.11765e-06
8.19728e-06
4.58094e-06
2.79503e-06
3.26126e-06
4.12443e-06
2.11915e-06
3.35177e-06
3.61669e-06
1.56838e-05
7.33679e-06
8.24695e-06
5.00369e-06
2.82625e-06
7.20276e-06
3.26815e-06
4.18751e-06
2.02785e-06
2.42152e-06
3.11835e-06
5.97459e-06
5.87101e-06
4.09374e-06
5.45463e-06
2.28825e-06
4.49759e-06
4.38192e-06
4.50892e-06
4.39234e-06
4.27273e-06
5.32031e-06
1.53201e-06
2.38869e-06
2.02885e-06
4.38798e-06
3.17972e-06
3.14298e-06
4.61567e-06
5.87645e-06
8.18088e-06
2.48341e-06
1.53815e-05
3.49683e-06
7.35227e-06
2.01314e-06
2.0408e-06
7.98183e-06
4.41293e-06
7.1389e-06
1.20123e-06
5.03343e-06
1.61257e-06
4.12601e-06
8.73748e-06
4.37849e-06
7.97173e-06
2.13557e-06
3.38137e-06
9.48623e-06
7.40262e-06
1.80226e-06
2.10222e-06
7.98889e-06
1.87983e-06
7.44814e-06
4.19782e-06
2.37156e-06
4.31705e-06
6.06441e-06
4.30905e-06
2.16843e-06
1.8986e-06
1.81294e-06
3.89762e-06
2.44299e-06
1.65628e-06
8.01374e-06
1.64513e-06
2.3931e-06
3.01363e-06
2.99431e-06
1.36541e-06
1.87293e-06
2.09622e-06
1.94762e-06
1.87618e-06
6.37913e-06
4.58628e-06
2.02767e-06
1.61999e-06
2.41284e-06
3.8865e-06
4.44973e-06
2.29839e-06
1.17349e-05
3.11811e-06
1.354e-06
3.45063e-06
1.81846e-06
2.9382e-06
1.37381e-06
2.41464e-06
2.10451e-06
2.63927e-06
2.14166e-06
1.7943e-06
3.19976e-06
1.36989e-06
2.43489e-06
2.08158e-06
1.3601e-06
2.17203e-06
1.89924e-06
3.16996e-06
2.6119e-06
2.37677e-06
1.60225e-06
1.90684e-06
5.49206e-06
1.87878e-06
3.14313e-06
2.97301e-06
1.18454e-06
1.89263e-06
2.04166e-06
2.73572e-06
2.42405e-06
3.23083e-06
3.19752e-06
3.2142e-06
1.94492e-06
1.61196e-06
1.86876e-06
3.22435e-06
2.1114e-06
2.96917e-06
6.15288e-06
2.3097e-06
2.39729e-06
2.38029e-06
2.64508e-06
1.66557e-06
1.82377e-06
2.06583e-06
5.73271e-06
2.08467e-06
2.18324e-06
2.43522e-06
3.1188e-06
3.17316e-06
2.05447e-06
1.9592e-06
3.05718e-06
6.44327e-06
2.08796e-06
2.72615e-06
2.15709e-06
1.86812e-06
2.0028e-06
2.10999e-06
2.88994e-06
2.3222e-06
2.3979e-06
1.97629e-06
6.4127e-06
2.16225e-06
3.29198e-06
2.10223e-06
2.66566e-06
1.94415e-06
2.91865e-06
2.58116e-06
2.11703e-06
2.09534e-06
1.91719e-06
7.06046e-06
2.25203e-06
2.06378e-06
6.28159e-06
2.12147e-06
2.90924e-06
2.12921e-06
6.4487e-06
1.41701e-06
2.0682e-06
6.58062e-06
2.52584e-06
2.39732e-06
7.42191e-07
2.22368e-06
7.06751e-07
7.00657e-07
8.93749e-07
2.53536e-06
2.26535e-06
1.33607e-06
7.84725e-07
2.32303e-06
6.06694e-07
6.68276e-07
6.84307e-07
2.51242e-06
2.31629e-06
7.8367e-07
6.80839e-07
6.22692e-06
6.7471e-07
6.65305e-07
7.01158e-07
1.8232e-06
1.90695e-06
6.86722e-07
7.04792e-07
1.86445e-06
2.28572e-06
6.8045e-07
7.16005e-07
1.82373e-06
6.01079e-07
2.02791e-06
7.4579e-07
5.74423e-07
1.80052e-06
1.454e-06
2.2702e-06
1.80636e-06
2.15356e-06
1.79089e-06
1.79456e-06
6.8231e-07
2.24737e-06
1.45239e-06
1.79556e-06
6.97875e-07
6.24265e-07
6.62717e-07
1.44627e-06
1.40138e-06
2.15258e-06
1.82851e-06
1.3994e-06
1.43932e-06
2.19226e-06
6.97732e-07
1.77726e-06
1.79162e-06
6.54258e-07
7.3397e-07
2.34895e-06
7.10392e-07
6.56982e-07
6.26314e-07
2.18926e-06
6.12493e-07
6.03901e-07
5.92831e-07
5.12031e-07
5.11667e-07
4.9467e-07
4.97016e-07
4.96269e-07
5.33079e-07
4.94191e-07
4.97855e-07
4.86862e-07
4.90626e-07
4.94649e-07
4.94954e-07
4.91922e-07
4.89615e-07
4.96354e-07
4.95189e-07
4.82188e-07
1.10854e-06
5.3299e-07
5.44763e-07
5.36655e-07
5.15417e-07
5.01772e-07
5.53774e-07
5.53774e-07
5.53774e-07
5.53774e-07
5.53774e-07
5.53774e-07
5.50785e-07
5.50785e-07
7.45291e-07
7.11668e-07
4.9897e-07

NodalForce_(N) 3 343 double
-1.0803e-07 4.321e-10 2.67802e-10
-7.23472e-07 5.15008e-08 -2.18115e-07
0.000298506 1.35035e-05 0.000564162
-7.33352e-07 1.45781e-09 -1.8835e-07
-3.14773e-07 -9.3716e-08 -1.0191e-06
1.36268e-07 3.34528e-08 -1.17885e-06
-4.39373e-07 -6.87033e-08 -2.64552e-06
-6.47771e-07 1.08544e-08 -1.3229e-06
1.93524e-07 -7.16016e-08 -1.49944e-06
-1.61571e-07 4.49438e-08 -6.41036e-07
3.23904e-07 -5.77333e-08 -2.94807e-07
6.32792e-07 -1.39169e-07 -1.55276e-06
2.55539e-07 -1.29946e-07 -4.88841e-07
4.88393e-07 1.97413e-08 -2.53262e-07
3.3351e-07 -1.35185e-08 -2.95816e-07
3.69684e-07 5.00138e-08 -1.82054e-06
-1.66548e-07 5.38436e-08 -1.2821e-06
-7.84326e-08 7.29339e-09 -2.6744e-07
0.000818479 0.000612757 0.000322047
-1.34816e-07 3.52439e-09 -7.84121e-08
-7.3531e-07 -9.93549e-08 -1.27204e-06
-6.55823e-07 -3.56723e-07 -3.16666e-06
0.00177209 -0.000343861 0.000391485
-6.95813e-07 -8.43109e-08 -2.97997e-07
-1.40155e-06 -1.59818e-07 -1.28716e-06
-8.19383e-07 3.07942e-08 -5.56115e-07
-6.24371e-08 -2.41821e-08 -4.07059e-08
-4.9974e-07 -1.39865e-07 -3.22081e-07
-3.42278e-07 1.03719e-08 -6.88294e-08
-6.79076e-07 -3.66413e-09 -1.57972e-07
-8.83006e-07 6.23334e-08 -5.97694e-07
1.61528e-06 4.10708e-09 -4.78832e-06
9.81844e-07 -8.57862e-08 -3.45318e-06
1.27774e-08 -3.76642e-08 -2.47336e-06
-1.96536e-07 -8.57228e-08 -1.52824e-06
-3.38881e-07 3.71671e-08 -2.86149e-06
-1.9428e-07 -9.74407e-08 -1.1965e-06
-2.08694e-06 -4.77066e-09 -3.75909e-06
1.33813e-07 1.92591e-08 -3.93948e-07
5.44306e-07 3.81521e-08 -8.40109e-07
-3.96421e-08 -9.34159e-08 -5.25072e-07
6.96783e-07 9.24644e-08 -1.55315e-06
3.5402e-07 6.11674e-08 -2.57592e-07
4.89093e-08 -1.81636e-08 -9.80135e-08
-3.22927e-08 3.05184e-08 -6.31361e-07
0.00104608 -1.57573e-05 -0.00034063
-1.51933e-07 2.42446e-08 -8.00422e-08
0.000355395 0.000559112 -0.000482779
3.12324e-07 3.00943e-08 -3.0961e-07
1.2323e-07 2.73919e-09 -1.47371e-08
4.52848e-07 4.50617e-09 -6.58089e-07
6.69386e-07 5.36835e-08 -1.3364e-06
-2.33611e-07 5.9164e-09 -2.01698e-07
2.01426e-08 2.43113e-08 -2.16165e-07
1.43321e-08 1.33922e-08 -9.48171e-08
4.63939e-07 -9.147e-08 -1.88171e-06
0.000807488 -0.000271001 2.00702e-05
-1.79995e-07 8.05175e-09 -1.28925e-08
0.00194688 -0.000605587 0.000695109
1.27254e-07 -4.01116e-08 -8.6821e-07
3.05007e-07 1.10794e-08 -1.3669e-07
-3.65872e-07 -2.29118e-07 -1.44421e-06
-2.91951e-06 -6.09036e-07 -4.26271e-06
-6.92649e-07 -1.77237e-07 -2.22134e-06
-3.8282e-07 -9.44384e-08 -5.04387e-07
-1.70041e-08 -1.1035e-08 -4.28286e-08
2.5522e-08 -4.80444e-08 -1.06412e-07
6.22413e-07 1.2798e-08 -1.34864e-06
-2.03575e-07 -6.38648e-08 -1.30929e-06
-4.58183e-07 -2.92714e-07 -1.30888e-06
-2.64984e-07 -5.09779e-09 -8.80689e-08
2.06387e-07 -1.54524e-08 -9.36068e-08
-1.86252e-07 -6.55338e-08 -1.07671e-07
3.01031e-07 4.05946e-08 -7.1231e-07
-2.93573e-07 1.91358e-08 -2.59638e-07
0.00133792 -0.000321481 -0.000508993
-3.79429e-07 -2.02617e-10 -5.97524e-07
-1.10444e-07 3.23577e-09 -1.00273e-08
6.69488e-07 1.43758e-08 -7.33011e-07
4.455e-07 -5.55614e-08 -7.92041e-07
3.0848e-07 -4.36251e-08 -4.34105e-07
4.73289e-07 1.33755e-08 -3.48932e-07
5.96738e-08 -8.3386e-08 -1.73916e-06
-3.01087e-07 2.87354e-08 -2.28354e-07
0.00121731 0.000358101 0.00021825
-1.1479e-07 -2.47297e-09 -1.31694e-09
0.00120981 -0.00013917 -0.000284092
0.00179165 -0.00024553 -0.000496688
0.0010509 0.000778534 -0.000556791
-3.16323e-07 1.09002e-08 -7.07825e-08
1.60522e-07 1.18996e-09 -1.6604e-08
1.02956e-07 4.98103e-08 -7.5843e-07
4.64216e-07 5.96396e-08 -5.73345e-07
3.49377e-07 -4.66743e-08 -5.64573e-07
1.01581e-06 -4.98923e-07 -4.52121e-06
-4.88574e-07 -2.00681e-07 -7.43551e-07
-7.30817e-07 -1.85227e-07 -1.1987e-06
-2.53472e-07 -9.4327e-08 -7.94869e-07
0.00179192 0.000803555 -4.26596e-05
2.0412e-07 2.89352e-08 -1.5233e-06
-9.7151e-07 -1.38031e-07 -6.14115e-07
-1.16212e-06 -5.80889e-08 -1.16079e-06
-7.13553e-09 -3.55186e-09 -5.759e-08
9.59009e-08 -1.29814e-07 -1.6083e-06
-1.64039e-07 -1.21701e-08 -4.16823e-08
-7.38122e-07 -2.02545e-07 -6.61882e-07
-7.10868e-07 3.10679e-08 -1.56764e-06
-1.71899e-07 -2.98138e-07 -1.39443e-06
2.64107e-08 -1.95478e-07 -1.4553e-06
6.92481e-08 -1.06319e-09 -8.85375e-09
-7.4479e-07 6.75524e-09 -7.00364e-07
-1.18358e-06 6.3599e-08 -1.15666e-06
-1.14709e-06 6.74231e-08 -1.1642e-06
0.000662449 0.000391552 -0.000447817
-3.53504e-07 -1.39137e-07 -8.20605e-07
6.77871e-08 1.26939e-08 -1.13911e-07
-2.22857e-07 -3.80615e-08 -7.37785e-07
-5.52621e-07 -3.45956e-08 -2.26738e-06
-6.41568e-07 -4.43633e-08 -6.79985e-07
2.98851e-08 -1.23607e-07 -5.37465e-07
-1.3808e-07 -2.67391e-07 -1.75646e-06
-4.23531e-08 -1.29761e-07 -1.8862e-06
-1.21762e-09 -1.94261e-08 -4.34312e-08
0.00143207 0.0001576 0.000407866
2.2615e-08 -3.0563e-09 -1.01129e-08
2.31793e-09 -3.56266e-08 -7.38678e-07
-7.99778e-07 -1.50142e-09 -5.56884e-07
0.00166377 0.000472562 -0.000765891
5.02443e-08 7.50302e-09 -1.02053e-08
-5.43252e-07 2.77308e-08 -6.19629e-07
1.49051e-07 -4.64941e-08 -5.31179e-07
2.10347e-07 -5.12542e-08 -9.8223e-07
3.98109e-07 -7.55887e-08 -5.03351e-07
4.54184e-07 -1.962e-08 -7.28246e-07
0.00118252 -0.000156723 0.00043442
2.03805e-08 -7.4036e-09 -9.21632e-09
0.00145595 -0.000341243 0.00041719
-3.48568e-07 -1.43763e-07 -5.92402e-07
-2.42871e-07 -3.85629e-08 -7.36499e-07
-9.88602e-07 -4.05743e-08 -1.90059e-06
7.74017e-07 -3.77771e-08 -1.43378e-06
2.80082e-07 -7.73027e-08 -5.28234e-07
4.95691e-08 -1.09934e-07 -5.29083e-07
9.0001e-08 -1.47914e-07 -9.9271e-07
0.00106988 0.000547391 -0.000765198
3.25089e-07 -1.81476e-07 -8.10555e-07
-1.89291e-07 -7.62314e-08 -1.84145e-07
-1.96191e-06 -1.43264e-07 -3.12526e-06
-4.68317e-07 -1.02331e-07 -1.21739e-06
3.02568e-08 -1.2526e-08 -1.1707e-07
-2.05433e-07 -1.26027e-08 -1.2145e-07
-4.9854e-08 -1.36545e-08 -5.18456e-09
0.00231089 0.000719864 -4.4256e-06
4.27307e-08 -2.71617e-08 -5.62448e-07
-2.32295e-07 -3.87464e-08 -5.21189e-07
3.57779e-07 -9.25956e-09 -5.33844e-07
0.00149723 0.000113193 -0.000682626
0.000985671 0.00082431 0.00179053
2.81708e-07 6.42958e-09 -3.97386e-07
8.11843e-08 -1.3326e-07 -1.31743e-06
9.83221e-09 -4.0003e-08 -1.16992e-07
1.12267e-07 -1.70516e-08 -7.77041e-08
-5.24934e-07 -9.34841e-08 -4.68298e-07
1.94447e-07 5.2635e-09 -2.26794e-07
2.69573e-07 -4.12215e-08 -8.86809e-07
3.41315e-07 -1.13523e-08 -6.02405e-07
-7.51076e-07 -6.70163e-08 -6.18569e-07
-3.5307e-07 1.80427e-08 -1.14967e-07
-5.24323e-07 -1.21777e-08 -5.52245e-07
-2.60751e-07 -3.18638e-08 -3.90672e-07
-3.8791e-07 1.42393e-08 -2.711e-07
-6.0347e-07 3.12645e-08 -1.18452e-06
-3.97488e-07 -1.25199e-07 -4.47698e-07
2.67384e-07 2.94604e-08 -1.40236e-07
3.52896e-07 2.53238e-08 -2.99297e-07
1.36014e-07 1.02182e-08 -1.2107e-07
2.39293e-07 -4.43857e-08 -4.95656e-07
7.59708e-08 -2.15715e-08 -6.16739e-08
-2.96934e-07 -5.93785e-08 -1.08313e-06
0.00181663 -9.35797e-05 0.000301727
3.14485e-07 -1.02776e-07 -1.32524e-06
-8.1277e-07 -7.79563e-08 -8.95287e-07
-6.4396e-07 -1.59565e-07 -1.23103e-06
0.00137976 -0.000187736 -0.000315982
1.08109e-07 6.50612e-09 -5.45405e-08
1.43162e-07 -1.04722e-07 -5.00962e-07
4.87034e-07 -9.90761e-08 -1.01539e-06
3.39825e-07 -4.26421e-08 -7.05799e-07
1.25377e-08 -3.22854e-08 -4.51427e-07
-1.68769e-07 4.56033e-08 -7.66137e-07
-1.28285e-07 -2.41062e-08 -3.36648e-07
1.34284e-07 -4.20486e-08 -5.42193e-07
1.95341e-07 4.59569e-09 -1.18451e-07
-4.23719e-07 1.77718e-08 -1.97415e-07
-5.7862e-08 -2.97251e-08 -6.24258e-08
-2.48625e-08 -3.83634e-08 -8.14111e-08
-4.2877e-07 -7.36324e-08 -7.80714e-07
-6.11797e-07 1.00256e-08 -3.67223e-07
-1.72479e-07 -6.50366e-08 -8.34975e-07
-4.8486e-07 5.81045e-09 -3.96254e-07
-2.89392e-07 -6.55139e-08 -7.54452e-07
0.00155428 -0.000331598 -0.000113704
-4.83157e-08 -9.85071e-10 -2.50321e-08
0.00135472 -0.000646105 4.35295e-05
-3.21023e-07 -3.05958e-09 -1.5384e-07
-3.63553e-07 -1.78878e-08 -2.56916e-07
-7.3138e-07 3.5493e-08 -7.33051e-07
-4.90329e-07 -1.7783e-08 -4.39386e-07
-2.19685e-07 -1.18661e-07 -3.90071e-07
-4.51227e-08 -9.15927e-08 -3.24545e-07
-5.57987e-08 -4.36307e-10 -6.35685e-09
-5.28512e-07 -8.09133e-08 -5.66473e-07
9.96556e-08 -5.87301e-08 -8.67438e-07
-5.71307e-08 -5.12219e-08 -6.68329e-07
3.18018e-07 -4.86498e-09 -3.82204e-07
-1.89678e-07 -4.90111e-08 -5.53819e-08
1.76503e-07 -9.42869e-08 -8.10125e-07
-8.40173e-08 2.09671e-08 -1.77692e-07
-4.48587e-07 -6.01908e-10 -3.14932e-07
-7.94804e-07 -3.54671e-08 -8.93458e-07
1.05504e-07 -2.24747e-08 -3.09016e-07
-3.34213e-08 -7.83145e-08 -1.08694e-06
-2.0333e-07 -1.79329e-08 -2.58608e-07
-1.89682e-07 -1.64944e-07 -6.6912e-07
-8.49188e-08 -1.13672e-08 -8.57694e-08
0.00165507 0.000287759 0.000740244
2.55741e-07 1.00336e-08 -2.19345e-07
5.15145e-08 -7.44672e-08 -2.82331e-07
-3.68623e-07 4.60171e-08 -4.0095e-07
-5.88548e-08 -1.75895e-08 -1.87133e-07
-8.26446e-08 -6.51324e-08 -1.64999e-07
1.70542e-08 4.19115e-08 -3.92855e-07
0.00201802 -0.00140944 8.97144e-05
0.00187459 0.00070605 -0.00116769
-3.93433e-07 1.55214e-08 -2.30224e-07
-4.93341e-07 7.12235e-08 -7.23656e-07
-1.76278e-07 -6.17138e-08 -1.87407e-07
-8.22071e-08 -4.13377e-08 -8.37495e-07
-1.88461e-07 4.62497e-08 -3.86032e-07
3.55553e-07 1.79102e-08 -4.19641e-07
-4.30836e-07 -5.60463e-08 -9.16127e-07
0.00083019 0.000728825 1.27323e-05
-5.17876e-07 -1.72e-08 -6.41667e-07
-9.89904e-08 -2.02786e-08 -2.98742e-08
0.00088067 -5.02914e-06 -0.000976485
1.22604e-07 -1.47627e-08 -1.0687e-07
0.00205213 -0.00114737 0.000155261
-3.97459e-07 -4.54737e-08 -8.61001e-07
-3.15352e-07 -2.76569e-08 -4.91676e-07
0.000781039 -0.00106625 0.000118483
-4.40156e-07 -2.60014e-08 -2.47423e-07
0.000754439 0.00120264 -6.00195e-05
-9.90874e-08 -6.06451e-08 -2.6357e-07
4.31415e-08 -2.93701e-08 -2.80391e-07
-4.08853e-07 1.26773e-08 -1.94065e-07
-1.32733e-07 -1.04456e-07 -9.35865e-07
-1.57987e-07 -3.69436e-08 -7.79484e-08
0.000685328 -0.000143409 0.000804057
-1.05487e-07 2.82008e-08 -3.96163e-07
7.37602e-08 -2.53607e-08 -9.14065e-08
-5.93287e-09 -5.82063e-08 -2.72032e-07
0.000433725 -0.000425527 0.00103483
-3.07464e-07 -5.38608e-08 -5.70279e-07
-3.28857e-07 -4.81896e-08 -7.27366e-07
-5.44644e-08 -6.13278e-08 -2.7725e-07
-1.73505e-07 -2.22035e-08 -2.58155e-07
-6.92268e-08 8.29972e-10 -4.3118e-09
0.000985463 0.000517395 4.59061e-05
0.00066664 -0.000991983 0.000180632
0.000706541 -0.000982075 0.000107311
-4.07719e-07 -3.14381e-08 -5.50542e-07
-4.61392e-08 -2.5509e-08 -2.39502e-07
-1.45705e-07 -1.29373e-08 -1.57228e-07
1.30326e-07 -1.52084e-08 -2.96645e-07
0.000772609 0.000479823 0.00014142
0.000389579 0.000332307 -0.000523545
2.45476e-08 -3.59074e-09 -1.54025e-08
6.09954e-08 -2.53214e-09 -8.5581e-09
2.60986e-07 -5.70608e-08 -6.03593e-07
5.278e-08 6.31703e-09 -1.15017e-08
0.000628276 -0.00021456 -0.000296991
2.5388e-07 -4.23358e-08 -7.28779e-07
-1.44745e-07 -1.41808e-08 -1.31769e-07