# vtk DataFile Version 4.2
vtk output
ASCII
DATASET UNSTRUCTURED_GRID

POINTS 343 double
0.00161158 0.00421626 -2.06357e-05
0.00311688 0.00502404 0.00213522
0 0.00419538 0.00112517
0.0027746 0.00199116 0.00190656
0.00744705 0.00251144 0.00493898
0.00744387 0.00393234 0.00630345
0.010975 0.0049294 0.00486216
0.00896114 0.00497492 0.00358055
0.00984658 0.00342729 0.00678955
0.00717988 0.0050907 0.00490962
0.00602061 0.00120234 0.00992075
0.00760656 0.00218704 0.00780679
0.00604019 7.80204e-05 0.0082405
0.00289056 0.00204018 0.00799667
0.00616818 0.0026175 0.00991845
0.0100053 0.00658458 0.00681996
0.00922647 0.00630961 0.00506765
0.00324949 0.00222773 0.00510478
0 0.00143586 0.00417514
0.00228974 0.00349618 0.0040077
0.00985208 0.00333351 0.0030404
0.0111648 0.00237437 0.00492476
0 0.00270918 0.00154168
0.00599681 0.00151389 -7.20429e-05
0.00721833 0.00228987 0.00210864
0.00570471 0.00360531 0.00153266
0.00193523 2.44019e-05 0.00403552
0.00603634 7.85857e-05 0.00161331
0.00377264 0.00700234 -4.61364e-05
0.00277791 0.00808952 0.00190885
0.00587766 0.00632762 0.00157224
0.0115066 0.0081431 0.00784939
0.0114659 0.00497692 0.007875
0.0120684 0.00624865 0.00579556
0.0143701 0.00901918 0.00401627
0.0108965 0.00778551 0.00482764
0.0123136 0.0101497 0.00401454
0.0114753 0.00812963 0.00187633
0.00508592 0.003105 0.00689545
0.00638337 0.00374842 0.00824147
0.00560592 0.00167868 0.00589852
0.00718951 0.00776487 0.00758459
0.00285099 0.00804546 0.00795343
0.00405196 0.0100502 0.00707536
0.00562158 0.00847432 0.00588625
0 0.00695361 0.00262895
0.00236167 0.00627048 0.00405757
0 0.0040177 0.00850214
0.00332189 0.00502918 0.00761939
0.00205564 0.00420083 0.00997387
0.0103153 0.0072586 0.00986342
0.00879756 0.00609083 0.0083038
0.00294154 0.00798034 0.00470401
0.00436908 0.0070014 0.00641261
0.00227617 0.00610832 0.00589684
0.0143655 0.00598523 0.00812618
0 0.00718191 0.00711644
0.00227351 0.00580398 -2.88896e-05
0 0.00577432 0.00158701
0.0143668 0.00735605 0.0069293
0.00412027 0.00340365 0.0099454
0.014364 0.00162367 0.00399895
0.0115903 0.00211151 0.00183914
0.0120849 0.00367482 0.00384924
0.00536725 0.00172294 0.00406042
0.00216019 0.0100277 0.00578712
0.00404851 5.25469e-05 0.00707701
0.00879321 0.00429291 0.00826234
0.0143664 0.00745021 0.00401909
0.0123058 0.000157336 0.004016
0.00481257 0.00293614 -5.8137e-05
0.00388354 0.00159115 0.00994877
0.0040637 5.2986e-05 0.00278063
0.0068988 0.00528758 0.00746571
0.00454322 0.00320763 0.00310927
0 0.00849157 0.00581511
0.00700406 0.0037664 0.0036983
0.00220893 0.00273781 -2.79787e-05
0.00833001 0.00842766 0.00988928
0.00859176 0.0101048 0.00839407
0.00604496 0.0100744 0.0082393
0.00576565 0.00857493 0.0099231
0.014368 0.00866134 0.00563136
0.00452018 0.00689447 0.00309244
0 0.00748929 0.00137438
0.0019682 0.00751499 -2.51608e-05
0 0.00287343 0.00335182
0 0.00580816 0.00831736
0 0.00429792 0.00253898
0.00364308 0.00434523 -4.45305e-05
0.00205517 0.00584566 0.00997377
0.00743901 0.00656955 0.00630559
0.00517441 0.00657797 0.00816697
0.00998616 0.00275443 0.00986808
0.0115308 0.00210569 0.00788649
0.0100189 0.000129094 0.00295885
0.00865161 0.00177615 0.00350561
0.0143644 0.00305735 0.0031772
0 0.00140616 0.00256446
0.00915909 0.00834097 0.00630438
0.00836405 0.00154429 -9.96777e-05
0.00867743 0.00366331 0.00149764
0.0045268 0.010056 0.00576659
0.0123045 0.0101498 0.00567646
0.00367994 0.00145415 -4.48635e-05
0.00858943 0.00011139 0.00138951
0.00902805 0.0083997 0.00350434
0.0122975 0.000157251 0.00567783
0.0089173 0.00178775 0.00625246
0.00201261 0.00258961 0.0099743
0.0102349 0.00730904 -0.000122773
0.00742546 0.00778328 0.00207638
0.00854353 0.00620131 0.00149746
0 0.00686719 0.00578184
0.0143669 0.00159465 0.00239288
0.00254425 0.00364303 0.00637544
0.0143715 0.00865636 0.00244998
0.0120918 0.00633939 0.00398301
0.00859645 0.0101055 0.00138773
0.0100149 0.000128825 0.00679969
0.0143631 0.00162285 0.00563686
0.0120683 0.00372589 0.00590775
0.0021597 2.72254e-05 0.00578793
0 0.0013659 0.00748679
0.00196008 2.47798e-05 0.00750451
0.0143656 0.00704272 0.00559754
0.00836255 0.00859573 -0.00010117
0 0.0075208 0.00859127
0.00195547 0.00751154 0.00997507
0.00607639 0.00828179 0.00355062
0.0123529 0.0101489 0.00735201
0.0143703 0.00879935 0.00733714
0.00829197 0.00169338 0.0098905
0.0104307 0.00431926 0.00986183
0 0.0057735 0.00666667
0.00196099 0.0100251 0.00750357
0 0.00863025 0.00752641
0.0123468 0.000159375 0.00235718
0.0143678 0.00713019 0.00245579
0.0121628 0.00649272 0.0020156
0.0122319 0.00597538 0.0098389
0.0107619 0.00151222 0.00985828
0.0123456 0.000158963 0.00735397
0.0143648 0.00155328 0.00729916
0 0.00143551 0.00581971
0.00858447 0.000110776 0.00839519
0.00604939 7.85249e-05 0.0033242
0.0114083 0.0048518 0.00189652
0.0143657 0.0044791 0.00236743
0.00606998 0.0100746 0.00658831
0.00406604 0.0100501 0.00277919
0.00188036 2.39646e-05 0.00239427
0 0.00727418 0.00419576
0.0143644 0.00595111 0.00648026
0.0100262 0.0101223 0.00295684
0.010791 0.0087678 0.00985694
0 0.00574334 0.00336387
0 0.0043297 0.00416652
0.00987003 0.00590689 0.00986936
0.0143627 0.00320547 0.00673013
0.00606465 7.86068e-05 0.00659002
0.00355252 0.0100439 0.00856531
0.0107644 0.0015056 -0.000127561
0.00829367 0.00676991 0.00988994
0.0143694 0.00769385 0.00839841
0.0123763 0.00770407 0.00983638
0.00994177 0.00315013 -0.00011805
0.00483012 0.00580585 -5.85467e-05
0.0108277 0.00876374 -0.000129302
0.0108098 0.0101315 0.00125567
0.00831298 0.0069715 -0.00010013
0.0100267 0.00649656 0.00290943
0.0108027 0.000140435 0.00125685
0.00413619 0.00505093 0.00994534
0.00621563 0.00591152 0.00991742
0.00621428 0.00424477 0.00991762
0.0108062 0.0101301 0.00847503
0.00354931 4.57805e-05 0.00856661
0.0143655 0.00592184 0.0031893
0 0.00302218 0.00691532
0.0143646 0.00419954 0.00830977
0.0122273 0.00417344 -0.000144026
0.0143683 0.00289365 0.00137513
0 0.00244495 0.00857025
0.00350615 0.00861408 0.00995366
0.0107986 0.000139656 0.00847653
0.0121995 0.00277855 0.00983926
0.0127219 0.0043539 0.00983175
0.00814842 0.0100996 0.00572922
0.00745072 0.00767674 0.00493795
0.00810958 0.0100991 0.00411232
0.010022 0.0101222 0.00679823
0.00433527 0.00697034 0.00994257
0.00598533 0.00440718 -7.18737e-05
0.00406709 5.25866e-05 0.00435352
0.00452296 5.87679e-05 0.00576879
0.0143697 0.00437731 0.000959687
0.00522447 0.00840345 0.00152272
0.0143638 0.00451024 0.00398925
0.00958586 0.0058939 -0.000114957
0.0123541 0.0101498 0.0023557
0 0.00848692 0.00262374
0.00193547 0.0100251 0.0040347
0 0.00885053 0.00419359
0.00602676 0.00892587 -7.34138e-05
0.00604099 0.0100743 0.00161196
0.00718209 0.00488348 0.00229009
0.0103807 0.00465346 -0.000123391
0.00810254 0.000104715 0.00411485
0.00814182 0.000105262 0.00573122
0.00188023 0.0100241 0.00239331
0.0123246 0.00260387 -0.000145479
0.0143631 0.00470227 0.00703238
0.0102287 0.0101249 0.00487078
0.00824801 0.00346843 0.00989068
0.00352618 4.62161e-05 0.00131238
0.0143657 0.00263015 0.00837758
0.00343447 0.0048352 0.00495613
0.00838466 0.00443746 -0.000100014
0.0119632 0.00595704 -0.000141003
0.00787267 0.0100963 0.00711883
0.0143625 0.00451057 0.00565075
0.00776572 0.0100951 0.00267817
0.0102216 0.000131397 0.00487244
0.00406958 0.0100503 0.00435146
0 0.00452174 0.00721958
0.00649133 0.00730099 0.00991362
0.00786607 0.000101697 0.00711998
0.00517204 0.00514034 0.00353047
0.00610633 0.0100747 0.00492968
0.00610089 7.93374e-05 0.00493225
0.00526815 0.00528394 0.00610784
0 0.005744 0.00499998
0 0.00433013 0.00583333
0.00718595 0.00583576 -8.63214e-05
0.0071614 0.00643 0.00346361
0.00775897 0.000100446 0.00268008
0.0143641 0.00592117 0.00481944
0.00529741 0.00647579 0.00477646
0.00824979 0.00510333 0.00989057
0.0143695 0.00595192 0.00141972
0 0.00666667 0
0.0123589 0.00767254 -0.000145809
0.00478567 6.29728e-05 -5.77428e-05
0 0.01 0.00666667
0.00718364 0.0100871 0.00990476
0 0.00288419 0.00499914
0.0143721 0.00766364 0.00120726
0.0143755 0.00684209 -0.000164644
0 0.005 0.01
0.0071831 0.00297722 -8.58627e-05
0 0.005 0
0.0143702 0.000191995 0.0031597
0.0143772 0.0101644 0.00647934
0.00602876 0.0073506 -7.30404e-05
0.014363 0.00306829 0.00481935
0.00718399 9.43794e-05 -8.63096e-05
0 0 0.00666667
0.00545198 0.00368648 0.00515724
0.00717783 9.26438e-05 0.00990595
0.0143686 0.000191443 0.00648155
0 0 0.005
0.0126325 0.010152 0.00106946
0.0143767 0.00894917 0.00105357
0.0143686 0.000191408 0.00482008
0.0143744 0.00518022 -0.000163482
0.00174769 0.00124256 -2.21375e-05
0 0.00122008 0.00122008
0 0.00333333 0.01
0 0.00666667 0.01
0.0126322 0.0089329 -0.000149007
0.0143784 0.010164 0.0031572
0.00605432 0.0100742 0.00332199
0.0143735 0.00684156 0.0098022
0 0.00333333 0
0 0.00122008 0.00877992
0.00174599 2.20986e-05 0.00875824
0.00174582 0.00124209 0.0099777
0.0126281 0.0101506 0.00861331
0.00174673 0.00880204 0.00997758
0 0.00877992 0.00877992
0.0143734 0.00894784 0.00858675
0.00959089 0.0101167 -0.000116404
0.0143711 0.00140989 0.00105363
0.00174716 0.0100221 0.00875757
0.0126273 0.00893082 0.00983212
0.0143721 0.00517879 0.0098028
0 0 0.00333333
0.00958315 0.000125359 -0.000114461
0.0126245 0.000164795 0.00106986
0.0017354 2.23005e-05 0.00118977
0 0.00877992 0.00122008
0.0017469 0.00880266 -2.2403e-05
0.00173507 0.0100221 0.00118888
0.0143679 0.00140839 0.00858752
0.0126218 0.00138332 0.00983323
0.00957635 0.000123733 0.00987429
0.0126267 0.00138516 -0.000148537
0.0126207 0.000163606 0.00861493
0.0143743 0.00351762 -0.000163185
0.00478474 0.0100582 0.00993643
0.00352772 0.0100437 0.00131125
0.00958406 0.0101155 0.00987322
0.0143709 0.00351557 0.00980264
0 0.01 0.005
0.00376568 0.00853486 -4.6346e-05
0.014377 0.0101641 0.00481963
0 0.01 0.00333333
0 0.00166667 0
0.0143735 0.000191872 0.00149855
0 0.00166667 0.01
0 0.00833333 0
0.0143797 0.00850495 -0.00016525
0.0143705 0.000191075 0.00814341
0.014382 0.0101659 0.00149835
0.014379 0.0101646 0.00814168
0.0023886 0.0100292 0.00996894
0 0.01 0.00833333
0.0119931 0.0101442 -0.000142896
0.0119849 0.000157538 -0.000142042
0.0119795 0.000155659 0.00984258
0.0119872 0.0101424 0.00984128
0 0 0.00833333
0.0143769 0.00850195 0.00980314
0.00238916 3.15462e-05 -2.97562e-05
0 0 0.00166667
0.00478862 0.0100591 -5.88316e-05
0.0143719 0.00185445 0.0098039
0.0143757 0.00185653 -0.000164011
0.00238625 3.06007e-05 0.00996958
0.00238922 0.0100299 -3.03152e-05
0 0.01 0.00166667
0.0143824 0.0101663 0.00980454
0 0 0.01
0.0143866 0.0101669 -0.000166537
0.0143745 0.000189897 0.0098065
0 0.01 0.01
0.0143788 0.000191619 -0.000165599
0 0.01 0
0 0 0
0.00718957 0.010088 -8.7963e-05
0.00478074 6.16963e-05 0.0099372
0 0.00833333 0.01

CELLS 343 686
1 0
1 1
1 2
1 3
1 4
1 5
1 6
1 7
1 8
1 9
1 10
1 11
1 12
1 13
1 14
1 15
1 16
1 17
1 18
1 19
1 20
1 21
1 22
1 23
1 24
1 25
1 26
1 27
1 28
1 29
1 30
1 31
1 32
1 33
1 34
1 35
1 36
1 37
1 38
1 39
1 40
1 41
1 42
1 43
1 44
1 45
1 46
1 47
1 48
1 49
1 50
1 51
1 52
1 53
1 54
1 55
1 56
1 57
1 58
1 59
1 60
1 61
1 62
1 63
1 64
1 65
1 66
1 67
1 68
1 69
1 70
1 71
1 72
1 73
1 74
1 75
1 76
1 77
1 78
1 79
1 80
1 81
1 82
1 83
1 84
1 85
1 86
1 87
1 88
1 89
1 90
1 91
1 92
1 93
1 94
1 95
1 96
1 97
1 98
1 99
1 100
1 101
1 102
1 103
1 104
1 105
1 106
1 107
1 108
1 109
1 110
1 111
1 112
1 113
1 114
1 115
1 116
1 117
1 118
1 119
1 120
1 121
1 122
1 123
1 124
1 125
1 126
1 127
1 128
1 129
1 130
1 131
1 132
1 133
1 134
1 135
1 136
1 137
1 138
1 139
1 140
1 141
1 142
1 143
1 144
1 145
1 146
1 147
1 148
1 149
1 150
1 151
1 152
1 153
1 154
1 155
1 156
1 157
1 158
1 159
1 160
1 161
1 162
1 163
1 164
1 165
1 166
1 167
1 168
1 169
1 170
1 171
1 172
1 173
1 174
1 175
1 176
1 177
1 178
1 179
1 180
1 181
1 182
1 183
1 184
1 185
1 186
1 187
1 188
1 189
1 190
1 191
1 192
1 193
1 194
1 195
1 196
1 197
1 198
1 199
1 200
1 201
1 202
1 203
1 204
1 205
1 206
1 207
1 208
1 209
1 210
1 211
1 212
1 213
1 214
1 215
1 216
1 217
1 218
1 219
1 220
1 221
1 222
1 223
1 224
1 225
1 226
1 227
1 228
1 229
1 230
1 231
1 232
1 233
1 234
1 235
1 236
1 237
1 238
1 239
1 240
1 241
1 242
1 243
1 244
1 245
1 246
1 247
1 248
1 249
1 250
1 251
1 252
1 253
1 254
1 255
1 256
1 257
1 258
1 259
1 260
1 261
1 262
1 263
1 264
1 265
1 266
1 267
1 268
1 269
1 270
1 271
1 272
1 273
1 274
1 275
1 276
1 277
1 278
1 279
1 280
1 281
1 282
1 283
1 284
1 285
1 286
1 287
1 288
1 289
1 290
1 291
1 292
1 293
1 294
1 295
1 296
1 297
1 298
1 299
1 300
1 301
1 302
1 303
1 304
1 305
1 306
1 307
1 308
1 309
1 310
1 311
1 312
1 313
1 314
1 315
1 316
1 317
1 318
1 319
1 320
1 321
1 322
1 323
1 324
1 325
1 326
1 327
1 328
1 329
1 330
1 331
1 332
1 333
1 334
1 335
1 336
1 337
1 338
1 339
1 340
1 341
1 342

CELL_TYPES 343
1
1
1
1
1
1
1
1
1
1
1
1
1
1
1
1
1
1
1
1
1
1
1
1
1
1
1
1
1
1
1
1
1
1
1
1
1
1
1
1
1
1
1
1
1
1
1
1
1
1
1
1
1
1
1
1
1
1
1
1
1
1
1
1
1
1
1
1
1
1
1
1
1
1
1
1
1
1
1
1
1
1
1
1
1
1
1
1
1
1
1
1
1
1
1
1
1
1
1
1
1
1
1
1
1
1
1
1
1
1
1
1
1
1
1
1
1
1
1
1
1
1
1
1
1
1
1
1
1
1
1
1
1
1
1
1
1
1
1
1
1
1
1
1
1
1
1
1
1
1
1
1
1
1
1
1
1
1
1
1
1
1
1
1
1
1
1
1
1
1
1
1
1
1
1
1
1
1
1
1
1
1
1
1
1
1
1
1
1
1
1
1
1
1
1
1
1
1
1
1
1
1
1
1
1
1
1
1
1
1
1
1
1
1
1
1
1
1
1
1
1
1
1
1
1
1
1
1
1
1
1
1
1
1
1
1
1
1
1
1
1
1
1
1
1
1
1
1
1
1
1
1
1
1
1
1
1
1
1
1
1
1
1
1
1
1
1
1
1
1
1
1
1
1
1
1
1
1
1
1
1
1
1
1
1
1
1
1
1
1
1
1
1
1
1
1
1
1
1
1
1
1
1
1
1
1
1
1
1
1
1
1
1
1
1
1
1
1
1
1
1
1
1
1
1
1
1
1
1
1
1
1
1
1
1
1
1
1
1
1
1
1
1

POINT_DATA 343
FIELD FieldData 8

NodeID_(#) 1 343 int
0
1
2
3
4
5
6
7
8
9
10
11
12
13
14
15
16
17
18
19
20
21
22
23
24
25
26
27
28
29
30
31
32
33
34
35
36
37
38
39
40
41
42
43
44
45
46
47
48
49
50
51
52
53
54
55
56
57
58
59
60
61
62
63
64
65
66
67
68
69
70
71
72
73
74
75
76
77
78
79
80
81
82
83
84
85
86
87
88
89
90
91
92
93
94
95
96
97
98
99
100
101
102
103
104
105
106
107
108
109
110
111
112
113
114
115
116
117
118
119
120
121
122
123
124
125
126
127
128
129
130
131
132
133
134
135
136
137
138
139
140
141
142
143
144
145
146
147
148
149
150
151
152
153
154
155
156
157
158
159
160
161
162
163
164
165
166
167
168
169
170
171
172
173
174
175
176
177
178
179
180
181
182
183
184
185
186
187
188
189
190
191
192
193
194
195
196
197
198
199
200
201
202
203
204
205
206
207
208
209
210
211
212
213
214
215
216
217
218
219
220
221
222
223
224
225
226
227
228
229
230
231
232
233
234
235
236
237
238
239
240
241
242
243
244
245
246
247
248
249
250
251
252
253
254
255
256
257
258
259
260
261
262
263
264
265
266
267
268
269
270
271
272
273
274
275
276
277
278
279
280
281
282
283
284
285
286
287
288
289
290
291
292
293
294
295
296
297
298
299
300
301
302
303
304
305
306
307
308
309
310
311
312
313
314
315
316
317
318
319
320
321
322
323
324
325
326
327
328
329
330
331
332
333
334
335
336
337
338
339
340
341
342

Component_(#) 1 343 int
0
0
0
0
0
0
0
0
0
0
0
0
0
0
0
0
0
0
0
0
0
0
0
0
0
0
0
0
0
0
0
0
0
0
0
0
0
0
0
0
0
0
0
0
0
0
0
0
0
0
0
0
0
0
0
0
0
0
0
0
0
0
0
0
0
0
0
0
0
0
0
0
0
0
0
0
0
0
0
0
0
0
0
0
0
0
0
0
0
0
0
0
0
0
0
0
0
0
0
0
0
0
0
0
0
0
0
0
0
0
0
0
0
0
0
0
0
0
0
0
0
0
0
0
0
0
0
0
0
0
0
0
0
0
0
0
0
0
0
0
0
0
0
0
0
0
0
0
0
0
0
0
0
0
0
0
0
0
0
0
0
0
0
0
0
0
0
0
0
0
0
0
0
0
0
0
0
0
0
0
0
0
0
0
0
0
0
0
0
0
0
0
0
0
0
0
0
0
0
0
0
0
0
0
0
0
0
0
0
0
0
0
0
0
0
0
0
0
0
0
0
0
0
0
0
0
0
0
0
0
0
0
0
0
0
0
0
0
0
0
0
0
0
0
0
0
0
0
0
0
0
0
0
0
0
0
0
0
0
0
0
0
0
0
0
0
0
0
0
0
0
0
0
0
0
0
0
0
0
0
0
0
0
0
0
0
0
0
0
0
0
0
0
0
0
0
0
0
0
0
0
0
0
0
0
0
0
0
0
0
0
0
0
0
0
0
0
0
0
0
0
0
0
0
0
0
0
0
0
0
0
0
0
0
0
0
0
0
0
0
0
0
0

NodalMass_(kg) 1 343 double
3.15563e-06
1.41304e-05
2.20912e-06
1.71484e-05
8.42e-06
9.09306e-06
1.01179e-05
7.52198e-06
6.81096e-06
5.58223e-06
3.10888e-06
1.07575e-05
4.87011e-06
1.64955e-05
3.0246e-06
8.05984e-06
6.703e-06
1.0877e-05
4.18978e-06
8.16106e-06
6.14143e-06
1.17902e-05
2.23114e-06
4.25176e-06
1.09915e-05
7.41467e-06
4.21871e-06
3.92484e-06
3.08766e-06
1.31268e-05
7.72627e-06
1.65404e-05
1.19037e-05
7.97564e-06
3.81683e-06
1.11001e-05
3.81317e-06
1.39137e-05
6.37414e-06
8.00975e-06
7.6712e-06
1.21135e-05
1.6399e-05
2.78633e-06
8.93599e-06
2.58087e-06
7.57362e-06
4.23241e-06
1.31286e-05
3.80168e-06
2.7746e-06
7.16776e-06
1.21307e-05
5.11765e-06
8.19728e-06
4.58094e-06
2.79503e-06
3.26126e-06
4.12443e-06
2.11915e-06
3.35177e-06
3.61669e-06
1.56838e-05
7.33679e-06
8.24695e-06
5.00369e-06
2.82625e-06
7.20276e-06
3.26815e-06
4.18751e-06
2.02785e-06
2.42152e-06
3.11835e-06
5.97459e-06
5.87101e-06
4.09374e-06
5.45463e-06
2.28825e-06
4.49759e-06
4.38192e-06
4.50892e-06
4.39234e-06
4.27273e-06
5.32031e-06
1.53201e-06
2.38869e-06
2.02885e-06
4.38798e-06
3.17972e-06
3.14298e-06
4.61567e-06
5.87645e-06
8.18088e-06
2.48341e-06
1.53815e-05
3.49683e-06
7.35227e-06
2.01314e-06
2.0408e-06
7.98183e-06
4.41293e-06
7.1389e-06
1.20123e-06
5.03343e-06
1.61257e-06
4.12601e-06
8.73748e-06
4.37849e-06
7.97173e-06
2.13557e-06
3.38137e-06
9.48623e-06
7.40262e-06
1.80226e-06
2.10222e-06
7.98889e-06
1.87983e-06
7.44814e-06
4.19782e-06
2.37156e-06
4.31705e-06
6.06441e-06
4.30905e-06
2.16843e-06
1.8986e-06
1.81294e-06
3.89762e-06
2.44299e-06
1.65628e-06
8.01374e-06
1.64513e-06
2.3931e-06
3.01363e-06
2.99431e-06
1.36541e-06
1.87293e-06
2.09622e-06
1.94762e-06
1.87618e-06
6.37913e-06
4.58628e-06
2.02767e-06
1.61999e-06
2.41284e-06
3.8865e-06
4.44973e-06
2.29839e-06
1.17349e-05
3.11811e-06
1.354e-06
3.45063e-06
1.81846e-06
2.9382e-06
1.37381e-06
2.41464e-06
2.10451e-06
2.63927e-06
2.14166e-06
1.7943e-06
3.19976e-06
1.36989e-06
2.43489e-06
2.08158e-06
1.3601e-06
2.17203e-06
1.89924e-06
3.16996e-06
2.6119e-06
2.37677e-06
1.60225e-06
1.90684e-06
5.49206e-06
1.87878e-06
3.14313e-06
2.97301e-06
1.18454e-06
1.89263e-06
2.04166e-06
2.73572e-06
2.42405e-06
3.23083e-06
3.19752e-06
3.2142e-06
1.94492e-06
1.61196e-06
1.86876e-06
3.22435e-06
2.1114e-06
2.96917e-06
6.15288e-06
2.3097e-06
2.39729e-06
2.38029e-06
2.64508e-06
1.66557e-06
1.82377e-06
2.06583e-06
5.73271e-06
2.08467e-06
2.18324e-06
2.43522e-06
3.1188e-06
3.17316e-06
2.05447e-06
1.9592e-06
3.05718e-06
6.44327e-06
2.08796e-06
2.72615e-06
2.15709e-06
1.86812e-06
2.0028e-06
2.10999e-06
2.88994e-06
2.3222e-06
2.3979e-06
1.97629e-06
6.4127e-06
2.16225e-06
3.29198e-06
2.10223e-06
2.66566e-06
1.94415e-06
2.91865e-06
2.58116e-06
2.11703e-06
2.09534e-06
1.91719e-06
7.06046e-06
2.25203e-06
2.06378e-06
6.28159e-06
2.12147e-06
2.90924e-06
2.12921e-06
6.4487e-06
1.41701e-06
2.0682e-06
6.58062e-06
2.52584e-06
2.39732e-06
7.42191e-07
2.22368e-06
7.06751e-07
7.00657e-07
8.93749e-07
2.53536e-06
2.26535e-06
1.33607e-06
7.84725e-07
2.32303e-06
6.06694e-07
6.68276e-07
6.84307e-07
2.51242e-06
2.31629e-06
7.8367e-07
6.80839e-07
6.22692e-06
6.7471e-07
6.65305e-07
7.01158e-07
1.8232e-06
1.90695e-06
6.86722e-07
7.04792e-07
1.86445e-06
2.28572e-06
6.8045e-07
7.16005e-07
1.82373e-06
6.01079e-07
2.02791e-06
7.4579e-07
5.74423e-07
1.80052e-06
1.454e-06
2.2702e-06
1.80636e-06
2.15356e-06
1.79089e-06
1.79456e-06
6.8231e-07
2.24737e-06
1.45239e-06
1.79556e-06
6.97875e-07
6.24265e-07
6.62717e-07
1.44627e-06
1.40138e-06
2.15258e-06
1.82851e-06
1.3994e-06
1.43932e-06
2.19226e-06
6.97732e-07
1.77726e-06
1.79162e-06
6.54258e-07
7.3397e-07
2.34895e-06
7.10392e-07
6.56982e-07
6.26314e-07
2.18926e-06
6.12493e-07
6.03901e-07
5.92831e-07
5.12031e-07
5.11667e-07
4.9467e-07
4.97016e-07
4.96269e-07
5.33079e-07
4.94191e-07
4.97855e-07
4.86862e-07
4.90626e-07
4.94649e-07
4.94954e-07
4.91922e-07
4.89615e-07
4.96354e-07
4.95189e-07
4.82188e-07
1.10854e-06
5.3299e-07
5.44763e-07
5.36655e-07
5.15417e-07
5.01772e-07
5.53774e-07
5.53774e-07
5.53774e-07
5.53774e-07
5.53774e-07
5.53774e-07
5.50785e-07
5.50785e-07
7.45291e-07
7.11668e-07
4.9897e-07

NodalForce_(N) 3 343 double
5.67447e-08 -1.78122e-10 4.02196e-09
3.37995e-07 -1.17088e-08 1.24147e-07
0.000255529 1.26594e-05 0.000579675
2.97605e-07 -3.72841e-08 1.09905e-07
-1.20158e-07 -1.88015e-07 6.1969e-07
-3.57093e-07 -1.54482e-07 7.26884e-07
3.15187e-08 -3.79682e-07 1.77788e-06
2.91498e-07 -1.6946e-07 8.59348e-07
-4.36329e-07 -2.50374e-07 9.92456e-07
2.38455e-09 -6.99671e-08 3.85462e-07
-3.33423e-07 -7.27786e-08 2.14171e-07
-9.10209e-07 -3.03536e-07 1.01217e-06
-4.0252e-07 -1.32207e-07 3.11524e-07
-3.71332e-07 -4.40139e-08 1.43925e-07
-3.10947e-07 -5.37558e-08 2.20358e-07
-3.59866e-07 -2.25624e-07 1.22403e-06
3.5774e-08 -1.50658e-07 8.24641e-07
-3.20289e-08 -2.43201e-08 1.35286e-07
0.000812662 0.000610874 0.00036027
4.65596e-08 -2.03638e-10 3.76286e-08
2.80752e-07 -2.22627e-07 8.61649e-07
-2.15925e-07 -6.14344e-07 2.1429e-06
0.00176918 -0.000340288 0.000375976
3.37748e-07 -8.51084e-08 2.5567e-07
5.41758e-07 -2.68356e-07 9.11373e-07
4.23301e-07 -7.57598e-08 4.10364e-07
-3.63819e-09 -2.93639e-09 1.96818e-08
1.46433e-07 -7.99891e-08 2.3623e-07
2.09897e-07 3.37336e-10 6.86379e-08
3.20964e-07 1.47434e-08 1.04083e-07
5.17178e-07 -2.40239e-08 4.47001e-07
-1.09329e-06 -6.96503e-07 3.383e-06
-1.09207e-06 -5.09983e-07 2.38857e-06
-1.14059e-07 -3.50059e-07 1.7069e-06
2.73492e-07 -2.44162e-07 1.09469e-06
2.97288e-07 -3.93158e-07 1.92679e-06
2.86517e-07 -1.97125e-07 8.42624e-07
1.73389e-06 -5.24976e-07 2.73492e-06
-1.92235e-07 -4.76956e-08 2.29496e-07
-5.49938e-07 -9.62469e-08 5.74316e-07
-2.19728e-07 -1.2233e-07 2.92205e-07
-5.47121e-07 -1.88694e-07 1.05032e-06
-2.89722e-07 -3.80778e-08 1.60478e-07
-2.40802e-08 -1.5039e-08 6.22604e-08
-1.01226e-08 -8.02003e-08 3.77209e-07
0.00102804 -3.57438e-05 -0.000345368
5.57241e-08 -8.42069e-09 4.36266e-08
0.000419875 0.000568488 -0.000452759
-2.44338e-07 -1.1148e-08 1.75935e-07
-8.41846e-08 -2.22193e-09 1.56444e-08
-3.37873e-07 -9.65555e-08 4.92383e-07
-5.79871e-07 -1.59688e-07 9.31378e-07
6.05812e-08 1.27105e-08 1.11746e-07
-5.01102e-08 -8.26954e-09 1.23399e-07
-3.71143e-08 -2.41917e-09 4.99348e-08
-3.99145e-07 -3.04413e-07 1.34642e-06
0.000783721 -0.000255047 1.94391e-05
1.00755e-07 -4.43207e-10 1.69041e-08
0.0019189 -0.000598669 0.000684043
-7.96222e-08 -1.35641e-07 6.20785e-07
-2.36625e-07 -1.82913e-08 1.13044e-07
2.74849e-08 -3.05174e-07 1.02975e-06
1.21984e-06 -8.81954e-07 3.06292e-06
2.02713e-07 -3.81515e-07 1.54561e-06
-1.3368e-08 -1.16001e-07 2.80231e-07
4.14138e-10 -4.89517e-09 2.6064e-08
-1.01189e-07 -3.60101e-08 5.69085e-08
-6.59227e-07 -1.85402e-07 9.26723e-07
1.9258e-07 -2.02055e-07 9.33909e-07
-3.57107e-08 -2.99466e-07 9.09547e-07
1.53117e-07 -1.28685e-08 7.78389e-08
-1.74931e-07 -2.38829e-08 7.23888e-08
1.05417e-08 -3.32783e-08 6.44202e-08
-3.15501e-07 -6.65609e-08 4.65761e-07
9.53421e-08 -2.97078e-08 1.41757e-07
0.00130525 -0.000317259 -0.000495402
1.13319e-07 -7.95835e-08 3.67319e-07
5.99678e-08 -1.97755e-09 9.94625e-09
-4.71734e-07 -1.16268e-07 5.66286e-07
-2.53329e-07 -1.24187e-07 5.70909e-07
-1.87325e-07 -5.98088e-08 3.06385e-07
-3.39471e-07 -6.25752e-08 2.89093e-07
6.41181e-08 -2.72942e-07 1.23679e-06
1.34881e-07 -3.82882e-09 1.31593e-07
0.00119107 0.000356943 0.000203288
6.16213e-08 3.90576e-09 5.30581e-09
0.00120929 -0.000119231 -0.000294811
0.0018924 -0.000228878 -0.000496904
0.00105795 0.000776311 -0.000566821
1.93386e-07 -7.97325e-09 6.56695e-08
-1.15053e-07 -1.27546e-09 2.10583e-08
-1.38675e-07 -7.61614e-08 4.80697e-07
-3.88537e-07 -3.46074e-08 3.92746e-07
-3.74965e-07 -1.10999e-07 4.09864e-07
-1.76468e-06 -9.06221e-07 3.06957e-06
8.31764e-08 -1.79408e-07 5.09872e-07
1.35098e-07 -2.56992e-07 7.89721e-07
9.51968e-08 -1.52577e-07 5.7395e-07
0.00178063 0.000790679 -6.16843e-05
-1.37986e-07 -2.11495e-07 9.98449e-07
4.64611e-07 -1.55872e-07 5.02908e-07
5.83972e-07 -1.96103e-07 8.55354e-07
6.11554e-09 -1.06763e-08 3.37047e-08
1.00619e-07 -2.70739e-07 1.11732e-06
8.46205e-08 -1.23958e-08 3.73735e-08
2.41986e-07 -1.63901e-07 4.9089e-07
5.4401e-07 -2.08629e-07 1.04184e-06
-2.73788e-07 -3.15034e-07 9.52077e-07
-4.66364e-07 -2.99635e-07 9.22916e-07
-4.70059e-08 -4.3639e-10 8.54287e-09
5.56104e-07 -9.17759e-08 5.6828e-07
7.94684e-07 -1.2362e-07 8.28852e-07
7.41454e-07 -1.16858e-07 8.70537e-07
0.000705436 0.00038681 -0.000426215
1.25439e-07 -1.77115e-07 5.98266e-07
-6.55406e-08 -7.83282e-09 5.99206e-08
2.25398e-07 -1.17067e-07 5.43652e-07
3.38932e-07 -3.24157e-07 1.56964e-06
5.33871e-07 -1.1174e-07 5.15606e-07
-2.16249e-07 -1.30258e-07 3.49209e-07
-1.99988e-07 -3.67988e-07 1.23263e-06
-2.4125e-07 -3.15318e-07 1.29412e-06
-3.87514e-08 -9.2231e-09 2.00886e-08
0.00146335 0.000192795 0.000387385
-2.82909e-08 -6.9299e-09 2.91853e-09
5.80596e-09 -1.13304e-07 5.23426e-07
6.03223e-07 -7.03587e-08 4.66952e-07
0.00167094 0.000468491 -0.000759201
-3.90248e-08 -4.60622e-09 1.01383e-08
3.18934e-07 -6.84723e-08 3.73025e-07
-5.5851e-08 -9.06564e-08 3.78062e-07
-9.41878e-08 -1.53501e-07 7.05328e-07
-4.36709e-07 -1.07223e-07 3.6333e-07
-4.33296e-07 -1.17268e-07 5.33712e-07
0.00111254 -0.000175224 0.000412855
-1.42338e-08 6.01993e-10 6.00797e-09
0.00146708 -0.00036129 0.000386993
8.76884e-08 -1.4089e-07 4.26224e-07
2.01072e-07 -1.11619e-07 5.38438e-07
7.05931e-07 -2.68211e-07 1.37376e-06
-6.54109e-07 -2.2873e-07 1.05677e-06
-3.37795e-07 -1.15757e-07 3.7728e-07
-1.87699e-07 -1.22148e-07 3.57678e-07
-2.4244e-07 -2.1199e-07 6.94174e-07
0.0010732 0.000548907 -0.000745706
-5.44257e-07 -1.97875e-07 5.34559e-07
8.12829e-09 -5.36499e-08 1.12637e-07
1.14604e-06 -4.95635e-07 2.23903e-06
2.69019e-07 -2.1712e-07 8.86001e-07
-1.18665e-08 -1.95228e-08 7.4014e-08
1.24609e-07 -2.22298e-08 7.29374e-08
1.12074e-08 3.28159e-10 2.68535e-09
0.00234086 0.000741897 -3.13505e-05
-4.87898e-08 -8.99184e-08 3.97456e-07
2.32001e-07 -8.76229e-08 3.63531e-07
-2.40025e-07 -9.02383e-08 4.08116e-07
0.00151211 0.000134186 -0.000679425
0.000933405 0.000827712 0.00177548
-2.33174e-07 -5.61191e-08 2.97093e-07
-2.1795e-07 -2.41503e-07 9.22631e-07
-7.54328e-08 -3.63804e-08 6.86769e-08
-6.60541e-08 -9.6505e-09 5.53796e-08
2.56321e-07 -1.11599e-07 3.74087e-07
-1.51793e-07 -2.72388e-08 1.7232e-07
-1.7802e-07 -1.41012e-07 6.41262e-07
-2.46332e-07 -9.79028e-08 4.49847e-07
4.11456e-07 -1.19937e-07 4.99186e-07
2.21834e-07 -2.94749e-09 1.05159e-07
4.31324e-07 -7.92368e-08 4.44913e-07
2.42082e-07 -6.44811e-08 2.94747e-07
2.71428e-07 -2.93736e-08 2.26428e-07
4.02321e-07 -1.45248e-07 8.13964e-07
1.38043e-07 -1.11045e-07 3.33099e-07
-2.06505e-07 -2.04983e-08 1.14162e-07
-2.85316e-07 -3.02678e-08 2.32872e-07
-1.16898e-07 -1.53229e-08 9.28571e-08
-1.27879e-07 -8.32073e-08 3.61169e-07
-9.92392e-08 -2.68208e-08 3.76612e-08
1.98258e-07 -1.7672e-07 7.78091e-07
0.00181055 -0.000123754 0.000260216
-3.53591e-07 -2.31589e-07 9.4292e-07
5.05869e-07 -1.65911e-07 7.13606e-07
3.36164e-07 -2.46589e-07 9.12512e-07
0.00139694 -0.000185832 -0.000324667
-8.26207e-08 -1.06248e-08 4.61872e-08
-2.6592e-07 -1.20724e-07 3.36447e-07
-5.45862e-07 -1.99637e-07 7.30356e-07
-3.32315e-07 -1.23321e-07 5.13478e-07
1.99321e-08 -7.78305e-08 2.87401e-07
7.72575e-08 -8.76728e-08 4.71481e-07
1.15682e-07 -5.87037e-08 2.17027e-07
-4.56217e-08 -9.00219e-08 3.64831e-07
-1.54426e-07 -3.6545e-09 9.84144e-08
2.59723e-07 -2.25926e-08 1.72074e-07
-1.80009e-08 -2.17274e-08 3.07859e-08
-4.94723e-08 -2.82527e-08 4.31944e-08
2.69531e-07 -1.43517e-07 5.90233e-07
3.82714e-07 -3.27862e-08 2.75357e-07
6.99008e-08 -1.43843e-07 5.96045e-07
3.24278e-07 -5.07484e-08 3.27081e-07
3.13799e-07 -1.25189e-07 5.466e-07
0.00150782 -0.000294913 -8.33879e-05
1.891e-08 -5.47107e-09 1.34255e-08
0.00134026 -0.000635937 1.06545e-05
2.27086e-07 -1.90132e-08 1.34238e-07
2.65082e-07 -4.70077e-08 1.90437e-07
3.86365e-07 -7.30152e-08 5.07146e-07
3.03765e-07 -7.27111e-08 3.54796e-07
-2.49763e-08 -1.04167e-07 2.45907e-07
-1.14729e-07 -8.49916e-08 1.98125e-07
2.69426e-08 -3.63476e-09 3.12453e-09
2.91064e-07 -1.19726e-07 4.50279e-07
-1.35864e-07 -1.45797e-07 6.12171e-07
1.1478e-07 -1.10662e-07 4.49594e-07
-3.03543e-07 -6.50214e-08 2.81943e-07
5.1815e-08 -1.43203e-08 3.99519e-08
-2.47628e-07 -1.61262e-07 5.74321e-07
1.18573e-08 -7.13213e-09 9.53251e-08
2.68548e-07 -4.77465e-08 2.60584e-07
5.63582e-07 -1.3054e-07 7.18476e-07
-5.14886e-08 -5.07693e-08 2.07711e-07
-5.68293e-08 -1.84603e-07 7.67749e-07
1.63925e-07 -4.40622e-08 1.77333e-07
-9.81019e-08 -1.57233e-07 4.42111e-07
5.24071e-08 -1.6157e-08 4.89758e-08
0.00165687 0.000299336 0.000719346
-1.93181e-07 -2.51079e-08 1.74096e-07
-1.60954e-07 -7.27759e-08 1.77599e-07
1.43557e-07 -2.80105e-08 2.20951e-07
5.31435e-08 -3.50222e-08 1.12213e-07
-5.22389e-08 -5.30274e-08 9.1741e-08
-8.50627e-08 -2.66761e-08 2.27508e-07
0.00200775 -0.0014177 7.85417e-05
0.0019216 0.000719556 -0.00115847
2.56438e-07 -1.45446e-08 1.98145e-07
2.62851e-07 -6.92094e-08 4.54475e-07
3.34346e-08 -4.87256e-08 1.27569e-07
3.82101e-08 -1.33813e-07 5.93944e-07
5.33934e-08 -2.19363e-08 2.15211e-07
-3.03214e-07 -5.37844e-08 3.14941e-07
3.11471e-07 -1.51501e-07 6.8558e-07
0.000810145 0.000735033 2.59651e-07
4.17499e-07 -9.52969e-08 5.13505e-07
4.14185e-08 -1.61281e-08 3.3043e-08
0.000885534 -2.36322e-06 -0.000981296
-7.84913e-08 -2.34289e-08 9.34511e-08
0.00203869 -0.00116317 0.000148287
3.44036e-07 -1.31818e-07 6.52176e-07
2.5073e-07 -8.04113e-08 3.91837e-07
0.000790978 -0.00106427 0.000112478
2.37902e-07 -4.45662e-08 2.06502e-07
0.000740691 0.00119259 -6.97929e-05
1.3683e-08 -6.21839e-08 1.90065e-07
9.69562e-12 -4.85616e-08 1.99601e-07
2.7335e-07 -1.25675e-08 1.70639e-07
-1.6776e-08 -1.74487e-07 6.63788e-07
6.65959e-08 -2.8614e-08 7.27427e-08
0.000674839 -0.000166252 0.000798821
-4.2805e-08 -4.41028e-08 2.19251e-07
-8.96828e-08 -2.24386e-08 6.51685e-08
-5.80534e-08 -6.2182e-08 1.89184e-07
0.000432408 -0.000423467 0.00102894
3.10615e-07 -9.42186e-08 4.33677e-07
3.19204e-07 -1.17007e-07 5.53186e-07
-2.31836e-08 -6.36019e-08 1.95521e-07
1.21376e-07 -4.50324e-08 2.05671e-07
3.36577e-08 -4.9351e-09 5.66704e-09
0.00099586 0.000515936 5.93613e-05
0.000679221 -0.000994707 0.000171398
0.00072743 -0.000981801 9.20034e-05
3.61475e-07 -8.30994e-08 4.37427e-07
6.55203e-08 -4.04941e-08 1.73511e-07
1.07663e-07 -3.15128e-08 9.73778e-08
-9.95419e-08 -4.92791e-08 2.23555e-07
0.000756798 0.000491159 0.000130517
0.000413174 0.000360039 -0.000524242
-2.53689e-08 -5.845e-09 6.8047e-09
-4.36371e-08 -2.83713e-09 7.07831e-09
-1.31703e-07 -1.06284e-07 4.45066e-07
-4.13842e-08 -5.01344e-09 1.14484e-08
0.000632731 -0.000218814 -0.000293916
-1.39693e-07 -1.21175e-07 5.35074e-07
1.22163e-07 -2.10014e-08 1.04938e-07
2.2758e-07 -1.9402e-07 6.39759e-07
-1.70565e-08 -1.10515e-09 1.13872e-08
-2.15678e-07 -1.03193e-07 4.43423e-07
-1.03361e-07 -4.97958e-08 2.07606e-07