# vtk DataFile Version 4.2
vtk output
ASCII
DATASET UNSTRUCTURED_GRID

POINTS 343 double
0.00159926 0.00421567 -2.00233e-05
0.00309272 0.00502289 0.00213672
0 0.00419538 0.00112517
0.00275334 0.00199014 0.0019078
0.00738379 0.00250833 0.00494467
0.00737917 0.00392965 0.00631059
0.0108751 0.00492623 0.00487306
0.0088834 0.0049722 0.00358696
0.00975697 0.00342369 0.00680119
0.00711876 0.00508837 0.00491502
0.00596548 0.0011998 0.00992784
0.00753883 0.00218381 0.00781548
0.00598678 7.50866e-05 0.00824688
0.00286679 0.00203902 0.00799811
0.00611162 0.00261493 0.00992579
0.00991281 0.00658237 0.00683213
0.00914416 0.00630736 0.0050761
0.00322354 0.00222645 0.00510658
0 0.00143586 0.00417514
0.0022718 0.00349529 0.00400881
0.00976592 0.0033298 0.00304727
0.0110636 0.0023698 0.004936
0 0.00270918 0.00154168
0.00594812 0.00151138 -6.97032e-05
0.00715856 0.00228691 0.00211253
0.00565844 0.00360316 0.0015354
0.00192017 2.36764e-05 0.00403649
0.00598707 7.58197e-05 0.00161629
0.00374272 0.00700104 -4.48398e-05
0.00275615 0.0080885 0.00191015
0.00582947 0.0063258 0.00157509
0.0113955 0.00814189 0.00786588
0.011357 0.00497379 0.00789139
0.0119542 0.00624632 0.00580965
0.0142276 0.00901917 0.00403145
0.0107959 0.00778412 0.00483835
0.0121956 0.0101511 0.0040265
0.0113705 0.00812872 0.00188418
0.00504304 0.0031031 0.00689923
0.00632673 0.00374601 0.00824838
0.00555927 0.00167627 0.0059025
0.00712457 0.00776302 0.00759243
0.00282727 0.00804421 0.00795501
0.00401684 0.0100494 0.00707801
0.00557342 0.00847289 0.00589036
0 0.00695361 0.00262895
0.00234296 0.00626958 0.00405867
0 0.0040177 0.00850214
0.00329437 0.005028 0.00762129
0.00203823 0.00420009 0.00997489
0.0102146 0.00725681 0.00987946
0.00871595 0.00608847 0.00831536
0.00291792 0.00797918 0.00470551
0.00433267 0.00699975 0.00641526
0.00225772 0.00610747 0.005898
0.0142206 0.00598245 0.00814829
0 0.00718191 0.00711644
0.002256 0.00580313 -2.80093e-05
0 0.00577432 0.00158701
0.0142223 0.00735469 0.00694972
0.00408288 0.00340206 0.00994941
0.0142252 0.00161739 0.00401384
0.0114872 0.00210659 0.00184669
0.0119738 0.00367084 0.00386029
0.00532367 0.00172066 0.0040637
0.00214257 0.010027 0.0057882
0.00401484 5.06651e-05 0.0070795
0.00871239 0.00428991 0.00827372
0.0142252 0.00744954 0.00403428
0.0121928 0.000150551 0.00402761
0.00477418 0.00293435 -5.64123e-05
0.00384847 0.00158951 0.00995247
0.00403132 5.11062e-05 0.00278285
0.00683779 0.00528524 0.00747302
0.00450688 0.00320592 0.00311192
0 0.00849157 0.00581511
0.00694553 0.00376384 0.00370288
0.00219209 0.00273701 -2.71293e-05
0.00824954 0.00842603 0.00990146
0.00850957 0.0101043 0.00840569
0.00598938 0.0100735 0.00824583
0.00571154 0.00857331 0.00993011
0.0142241 0.00866097 0.00564949
0.00448364 0.00689288 0.00309504
0 0.00748929 0.00137438
0.00195298 0.00751422 -2.44029e-05
0 0.00287343 0.00335182
0 0.00580816 0.00831736
0 0.00429792 0.00253898
0.00361453 0.00434395 -4.32928e-05
0.0020376 0.00584484 0.00997484
0.00737352 0.00656745 0.00631264
0.00512881 0.0065761 0.008172
0.00989074 0.00275023 0.00988293
0.0114221 0.00210067 0.0079028
0.00993131 0.000124006 0.00296573
0.00857749 0.00177233 0.00351149
0.0142259 0.00305214 0.00319067
0 0.00140616 0.00256446
0.00907507 0.00833946 0.00631434
0.0082939 0.00154058 -9.60856e-05
0.00860361 0.00366012 0.00150228
0.00448801 0.0100551 0.00576967
0.012185 0.0101511 0.00569099
0.00365106 0.00145264 -4.35751e-05
0.00851667 0.000106955 0.00139407
0.00894773 0.00839837 0.003511
0.0121829 0.000150455 0.00569225
0.00883818 0.00178381 0.00626187
0.00199569 0.00258888 0.00997532
0.0101444 0.00730764 -0.000117557
0.00736239 0.00778167 0.00208048
0.00847038 0.00619919 0.00150204
0 0.00686719 0.00578184
0.0142294 0.00158832 0.00240521
0.0025237 0.00364208 0.00637673
0.0142305 0.00865619 0.00246272
0.0119793 0.00633702 0.00399439
0.00852024 0.0101054 0.00139252
0.00992356 0.000123431 0.00681178
0.0142226 0.00161665 0.00565504
0.011955 0.00372175 0.0059222
0.00214241 2.63972e-05 0.00578897
0 0.0013659 0.00748679
0.00194414 2.39313e-05 0.00750526
0.0142231 0.00704143 0.00561538
0.00829032 0.0085947 -9.75663e-05
0 0.0075208 0.00859127
0.00193872 0.00751055 0.0099762
0.00602546 0.00828038 0.0035543
0.0122308 0.0101501 0.00736944
0.0142242 0.00879909 0.00735832
0.00821428 0.00168977 0.00990209
0.0103302 0.00431573 0.00987774
0 0.0057735 0.00666667
0.00194472 0.0100245 0.00750441
0 0.00863025 0.00752641
0.0122347 0.000152648 0.00236644
0.0142281 0.00712941 0.00246848
0.0120511 0.00649085 0.00202433
0.012111 0.0059727 0.00985887
0.0106583 0.00150756 0.0098749
0.0122284 0.000152162 0.00737106
0.0142223 0.0015469 0.00732001
0 0.00143551 0.00581971
0.00850603 0.000106227 0.00840634
0.00599974 7.55538e-05 0.00332761
0.0113062 0.00484874 0.00190404
0.0142273 0.00447494 0.00237944
0.00601581 0.0100739 0.00659371
0.00403232 0.0100493 0.00278145
0.00186594 2.3264e-05 0.00239508
0 0.00727418 0.00419576
0.0142215 0.00594812 0.00649983
0.0099341 0.0101228 0.00296416
0.0106842 0.0087666 0.00987407
0 0.00574334 0.00336387
0 0.0043297 0.00416652
0.00977475 0.00590415 0.00988443
0.0142205 0.00320014 0.00675022
0.00601284 7.55521e-05 0.00659526
0.00352093 0.0100433 0.00856816
0.0106703 0.00150086 -0.000122039
0.00821464 0.00676769 0.00990194
0.0142228 0.00769251 0.00842101
0.0122526 0.0077025 0.00985684
0.00985609 0.00314626 -0.000113129
0.00479139 0.00580421 -5.67697e-05
0.01073 0.00876329 -0.000123445
0.0107103 0.0101325 0.00126263
0.0082421 0.00696969 -9.6489e-05
0.00993749 0.00649458 0.00291654
0.010708 0.000134845 0.00126324
0.00409863 0.00504919 0.00994949
0.00615796 0.00590914 0.00992533
0.00615703 0.00424226 0.00992537
0.0107001 0.0101305 0.00849109
0.00351898 4.40088e-05 0.00856914
0.0142261 0.00591868 0.00320279
0 0.00302218 0.00691532
0.0142202 0.00419489 0.00833203
0.0121169 0.0041696 -0.0001375
0.0142312 0.0028884 0.00138564
0 0.00244495 0.00857025
0.00347406 0.00861284 0.00995714
0.0106968 0.000133922 0.00849216
0.0120801 0.0027736 0.00985899
0.0125958 0.00434983 0.00985267
0.00807431 0.0100993 0.00573721
0.00738582 0.00767497 0.00494394
0.00803721 0.0100988 0.00411848
0.00992651 0.0101223 0.00681059
0.00429565 0.00696862 0.00994724
0.00593677 0.00440508 -6.95528e-05
0.0040343 5.07649e-05 0.00435578
0.00448582 5.66422e-05 0.00577162
0.0142322 0.00437316 0.00096969
0.00518137 0.00840218 0.0015253
0.0142242 0.00450623 0.0040045
0.0095029 0.00589162 -0.000110418
0.012237 0.0101514 0.00236564
0 0.00848692 0.00262374
0.0019199 0.0100244 0.00403566
0 0.00885053 0.00419359
0.00597634 0.00892483 -7.09637e-05
0.00598974 0.0100737 0.00161512
0.00712235 0.00488114 0.00229399
0.0102901 0.00465042 -0.000118226
0.00803339 0.000100621 0.00412046
0.00807096 0.000101102 0.00573883
0.00186532 0.0100234 0.00239418
0.0122137 0.00259908 -0.000138925
0.0142199 0.00469826 0.00705303
0.0101328 0.0101254 0.00488081
0.00817066 0.00346521 0.0099021
0.00349857 4.45838e-05 0.00131386
0.0142215 0.00262439 0.00839988
0.00340676 0.00483398 0.00495801
0.00831383 0.00443458 -9.62763e-05
0.0118551 0.00595506 -0.000134426
0.00779985 0.0100957 0.00712741
0.0142211 0.0045065 0.00566883
0.00769755 0.0100948 0.00268304
0.0101303 0.000125943 0.00488197
0.00403548 0.0100495 0.00435373
0 0.00452174 0.00721958
0.00643041 0.00729907 0.00992208
0.00779645 9.76571e-05 0.00712851
0.00513015 0.00513856 0.0035335
0.00605327 0.0100742 0.00493408
0.00605016 7.61675e-05 0.00493635
0.00522412 0.00528208 0.00611145
0 0.005744 0.00499998
0 0.00433013 0.00583333
0.00712616 0.0058337 -8.33545e-05
0.00710089 0.00642792 0.00346813
0.00769368 9.65957e-05 0.00268469
0.0142232 0.00591782 0.00483613
0.00525369 0.00647399 0.00477973
0.00817199 0.00510047 0.00990221
0.0142312 0.00594907 0.00143029
0 0.00666667 0
0.012245 0.00767152 -0.000138795
0.00474744 6.04304e-05 -5.57212e-05
0 0.01 0.00666667
0.00711396 0.0100866 0.00991436
0 0.00288419 0.00499914
0.0142328 0.00766332 0.00121752
0.0142374 0.0068404 -0.00015549
0 0.005 0.01
0.00712382 0.00297438 -8.28904e-05
0 0.005 0
0.0142319 0.00018338 0.0031731
0.0142304 0.0101669 0.00649927
0.005979 0.00734902 -7.06735e-05
0.014223 0.00306274 0.00483596
0.00712459 9.04073e-05 -8.29754e-05
0 0 0.00666667
0.00540712 0.00368446 0.00516079
0.00711125 8.91136e-05 0.00991534
0.0142269 0.000182884 0.00650116
0 0 0.005
0.0125127 0.0101539 0.00107802
0.0142364 0.00894969 0.00106387
0.0142288 0.000182845 0.00483671
0.0142369 0.00517695 -0.000154666
0.00173444 0.00124191 -2.14553e-05
0 0.00122008 0.00122008
0 0.00333333 0.01
0 0.00666667 0.01
0.0125138 0.00893327 -0.000141662
0.0142351 0.0101667 0.00317135
0.00600258 0.0100736 0.00332559
0.0142254 0.00683945 0.00982706
0 0.00333333 0
0 0.00122008 0.00877992
0.00173157 2.13325e-05 0.00875919
0.00173121 0.00124145 0.00997857
0.012501 0.0101518 0.00863316
0.0017318 0.00880128 0.0099786
0 0.00877992 0.00877992
0.0142257 0.00894774 0.00860973
0.00950505 0.0101175 -0.000111177
0.0142347 0.0014033 0.00106372
0.00173233 0.0100216 0.00875859
0.0124997 0.00893038 0.00985322
0.0142249 0.00517511 0.00982754
0 0 0.00333333
0.00950116 0.000119897 -0.000109433
0.0125098 0.000157843 0.00107784
0.00172212 2.16084e-05 0.00119052
0 0.00877992 0.00122008
0.00173334 0.00880207 -2.17104e-05
0.00172134 0.0100215 0.00118975
0.0142238 0.00140184 0.00861026
0.0124977 0.00137761 0.00985393
0.00948544 0.000118733 0.00988851
0.0125126 0.00137924 -0.000141722
0.0124984 0.000156714 0.00863447
0.0142376 0.00351283 -0.000154551
0.00473968 0.0100575 0.00994167
0.00349899 0.0100429 0.00131291
0.00948918 0.0101155 0.00988764
0.0142243 0.0035102 0.00982719
0 0.01 0.005
0.00373544 0.00853387 -4.49529e-05
0.0142321 0.0101668 0.0048362
0 0.01 0.00333333
0 0.00166667 0
0.0142366 0.000183457 0.0015093
0 0.00166667 0.01
0 0.00833333 0
0.0142401 0.00850536 -0.000156445
0.0142268 0.000182752 0.00816564
0.0142399 0.0101687 0.0015095
0.0142302 0.0101669 0.00816424
0.00236725 0.0100288 0.00997072
0 0.01 0.00833333
0.011881 0.0101463 -0.000135563
0.011878 0.000150715 -0.000135327
0.0118628 0.000149259 0.00986184
0.0118658 0.0101434 0.00986084
0 0 0.00833333
0.0142276 0.00850127 0.00982804
0.00237075 3.02974e-05 -2.86791e-05
0 0 0.00166667
0.00474884 0.0100585 -5.68553e-05
0.0142259 0.00184838 0.00982843
0.0142396 0.00185041 -0.000155365
0.00236579 2.95293e-05 0.00997126
0.00237009 0.0100294 -2.92769e-05
0 0.01 0.00166667
0.0142318 0.0101683 0.00982925
0 0 0.01
0.0142455 0.0101697 -0.000157265
0.0142289 0.000181871 0.00983094
0 0.01 0.01
0.0142432 0.000183034 -0.000156718
0 0.01 0
0 0 0
0.00712761 0.0100879 -8.46934e-05
0.0047373 5.96743e-05 0.00994248
0 0.00833333 0.01

CELLS 343 686
1 0
1 1
1 2
1 3
1 4
1 5
1 6
1 7
1 8
1 9
1 10
1 11
1 12
1 13
1 14
1 15
1 16
1 17
1 18
1 19
1 20
1 21
1 22
1 23
1 24
1 25
1 26
1 27
1 28
1 29
1 30
1 31
1 32
1 33
1 34
1 35
1 36
1 37
1 38
1 39
1 40
1 41
1 42
1 43
1 44
1 45
1 46
1 47
1 48
1 49
1 50
1 51
1 52
1 53
1 54
1 55
1 56
1 57
1 58
1 59
1 60
1 61
1 62
1 63
1 64
1 65
1 66
1 67
1 68
1 69
1 70
1 71
1 72
1 73
1 74
1 75
1 76
1 77
1 78
1 79
1 80
1 81
1 82
1 83
1 84
1 85
1 86
1 87
1 88
1 89
1 90
1 91
1 92
1 93
1 94
1 95
1 96
1 97
1 98
1 99
1 100
1 101
1 102
1 103
1 104
1 105
1 106
1 107
1 108
1 109
1 110
1 111
1 112
1 113
1 114
1 115
1 116
1 117
1 118
1 119
1 120
1 121
1 122
1 123
1 124
1 125
1 126
1 127
1 128
1 129
1 130
1 131
1 132
1 133
1 134
1 135
1 136
1 137
1 138
1 139
1 140
1 141
1 142
1 143
1 144
1 145
1 146
1 147
1 148
1 149
1 150
1 151
1 152
1 153
1 154
1 155
1 156
1 157
1 158
1 159
1 160
1 161
1 162
1 163
1 164
1 165
1 166
1 167
1 168
1 169
1 170
1 171
1 172
1 173
1 174
1 175
1 176
1 177
1 178
1 179
1 180
1 181
1 182
1 183
1 184
1 185
1 186
1 187
1 188
1 189
1 190
1 191
1 192
1 193
1 194
1 195
1 196
1 197
1 198
1 199
1 200
1 201
1 202
1 203
1 204
1 205
1 206
1 207
1 208
1 209
1 210
1 211
1 212
1 213
1 214
1 215
1 216
1 217
1 218
1 219
1 220
1 221
1 222
1 223
1 224
1 225
1 226
1 227
1 228
1 229
1 230
1 231
1 232
1 233
1 234
1 235
1 236
1 237
1 238
1 239
1 240
1 241
1 242
1 243
1 244
1 245
1 246
1 247
1 248
1 249
1 250
1 251
1 252
1 253
1 254
1 255
1 256
1 257
1 258
1 259
1 260
1 261
1 262
1 263
1 264
1 265
1 266
1 267
1 268
1 269
1 270
1 271
1 272
1 273
1 274
1 275
1 276
1 277
1 278
1 279
1 280
1 281
1 282
1 283
1 284
1 285
1 286
1 287
1 288
1 289
1 290
1 291
1 292
1 293
1 294
1 295
1 296
1 297
1 298
1 299
1 300
1 301
1 302
1 303
1 304
1 305
1 306
1 307
1 308
1 309
1 310
1 311
1 312
1 313
1 314
1 315
1 316
1 317
1 318
1 319
1 320
1 321
1 322
1 323
1 324
1 325
1 326
1 327
1 328
1 329
1 330
1 331
1 332
1 333
1 334
1 335
1 336
1 337
1 338
1 339
1 340
1 341
1 342

CELL_TYPES 343
1
1
1
1
1
1
1
1
1
1
1
1
1
1
1
1
1
1
1
1
1
1
1
1
1
1
1
1
1
1
1
1
1
1
1
1
1
1
1
1
1
1
1
1
1
1
1
1
1
1
1
1
1
1
1
1
1
1
1
1
1
1
1
1
1
1
1
1
1
1
1
1
1
1
1
1
1
1
1
1
1
1
1
1
1
1
1
1
1
1
1
1
1
1
1
1
1
1
1
1
1
1
1
1
1
1
1
1
1
1
1
1
1
1
1
1
1
1
1
1
1
1
1
1
1
1
1
1
1
1
1
1
1
1
1
1
1
1
1
1
1
1
1
1
1
1
1
1
1
1
1
1
1
1
1
1
1
1
1
1
1
1
1
1
1
1
1
1
1
1
1
1
1
1
1
1
1
1
1
1
1
1
1
1
1
1
1
1
1
1
1
1
1
1
1
1
1
1
1
1
1
1
1
1
1
1
1
1
1
1
1
1
1
1
1
1
1
1
1
1
1
1
1
1
1
1
1
1
1
1
1
1
1
1
1
1
1
1
1
1
1
1
1
1
1
1
1
1
1
1
1
1
1
1
1
1
1
1
1
1
1
1
1
1
1
1
1
1
1
1
1
1
1
1
1
1
1
1
1
1
1
1
1
1
1
1
1
1
1
1
1
1
1
1
1
1
1
1
1
1
1
1
1
1
1
1
1
1
1
1
1
1
1
1
1
1
1
1
1
1
1
1
1
1
1
1
1
1
1
1
1
1
1
1
1
1
1
1
1
1
1
1
1

POINT_DATA 343
FIELD FieldData 8

NodeID_(#) 1 343 int
0
1
2
3
4
5
6
7
8
9
10
11
12
13
14
15
16
17
18
19
20
21
22
23
24
25
26
27
28
29
30
31
32
33
34
35
36
37
38
39
40
41
42
43
44
45
46
47
48
49
50
51
52
53
54
55
56
57
58
59
60
61
62
63
64
65
66
67
68
69
70
71
72
73
74
75
76
77
78
79
80
81
82
83
84
85
86
87
88
89
90
91
92
93
94
95
96
97
98
99
100
101
102
103
104
105
106
107
108
109
110
111
112
113
114
115
116
117
118
119
120
121
122
123
124
125
126
127
128
129
130
131
132
133
134
135
136
137
138
139
140
141
142
143
144
145
146
147
148
149
150
151
152
153
154
155
156
157
158
159
160
161
162
163
164
165
166
167
168
169
170
171
172
173
174
175
176
177
178
179
180
181
182
183
184
185
186
187
188
189
190
191
192
193
194
195
196
197
198
199
200
201
202
203
204
205
206
207
208
209
210
211
212
213
214
215
216
217
218
219
220
221
222
223
224
225
226
227
228
229
230
231
232
233
234
235
236
237
238
239
240
241
242
243
244
245
246
247
248
249
250
251
252
253
254
255
256
257
258
259
260
261
262
263
264
265
266
267
268
269
270
271
272
273
274
275
276
277
278
279
280
281
282
283
284
285
286
287
288
289
290
291
292
293
294
295
296
297
298
299
300
301
302
303
304
305
306
307
308
309
310
311
312
313
314
315
316
317
318
319
320
321
322
323
324
325
326
327
328
329
330
331
332
333
334
335
336
337
338
339
340
341
342

Component_(#) 1 343 int
0
0
0
0
0
0
0
0
0
0
0
0
0
0
0
0
0
0
0
0
0
0
0
0
0
0
0
0
0
0
0
0
0
0
0
0
0
0
0
0
0
0
0
0
0
0
0
0
0
0
0
0
0
0
0
0
0
0
0
0
0
0
0
0
0
0
0
0
0
0
0
0
0
0
0
0
0
0
0
0
0
0
0
0
0
0
0
0
0
0
0
0
0
0
0
0
0
0
0
0
0
0
0
0
0
0
0
0
0
0
0
0
0
0
0
0
0
0
0
0
0
0
0
0
0
0
0
0
0
0
0
0
0
0
0
0
0
0
0
0
0
0
0
0
0
0
0
0
0
0
0
0
0
0
0
0
0
0
0
0
0
0
0
0
0
0
0
0
0
0
0
0
0
0
0
0
0
0
0
0
0
0
0
0
0
0
0
0
0
0
0
0
0
0
0
0
0
0
0
0
0
0
0
0
0
0
0
0
0
0
0
0
0
0
0
0
0
0
0
0
0
0
0
0
0
0
0
0
0
0
0
0
0
0
0
0
0
0
0
0
0
0
0
0
0
0
0
0
0
0
0
0
0
0
0
0
0
0
0
0
0
0
0
0
0
0
0
0
0
0
0
0
0
0
0
0
0
0
0
0
0
0
0
0
0
0
0
0
0
0
0
0
0
0
0
0
0
0
0
0
0
0
0
0
0
0
0
0
0
0
0
0
0
0
0
0
0
0
0
0
0
0
0
0
0
0
0
0
0
0
0
0
0
0
0
0
0
0
0
0
0
0
0

NodalMass_(kg) 1 343 double
3.15563e-06
1.41304e-05
2.20912e-06
1.71484e-05
8.42e-06
9.09306e-06
1.01179e-05
7.52198e-06
6.81096e-06
5.58223e-06
3.10888e-06
1.07575e-05
4.87011e-06
1.64955e-05
3.0246e-06
8.05984e-06
6.703e-06
1.0877e-05
4.18978e-06
8.16106e-06
6.14143e-06
1.17902e-05
2.23114e-06
4.25176e-06
1.09915e-05
7.41467e-06
4.21871e-06
3.92484e-06
3.08766e-06
1.31268e-05
7.72627e-06
1.65404e-05
1.19037e-05
7.97564e-06
3.81683e-06
1.11001e-05
3.81317e-06
1.39137e-05
6.37414e-06
8.00975e-06
7.6712e-06
1.21135e-05
1.6399e-05
2.78633e-06
8.93599e-06
2.58087e-06
7.57362e-06
4.23241e-06
1.31286e-05
3.80168e-06
2.7746e-06
7.16776e-06
1.21307e-05
5.11765e-06
8.19728e-06
4.58094e-06
2.79503e-06
3.26126e-06
4.12443e-06
2.11915e-06
3.35177e-06
3.61669e-06
1.56838e-05
7.33679e-06
8.24695e-06
5.00369e-06
2.82625e-06
7.20276e-06
3.26815e-06
4.18751e-06
2.02785e-06
2.42152e-06
3.11835e-06
5.97459e-06
5.87101e-06
4.09374e-06
5.45463e-06
2.28825e-06
4.49759e-06
4.38192e-06
4.50892e-06
4.39234e-06
4.27273e-06
5.32031e-06
1.53201e-06
2.38869e-06
2.02885e-06
4.38798e-06
3.17972e-06
3.14298e-06
4.61567e-06
5.87645e-06
8.18088e-06
2.48341e-06
1.53815e-05
3.49683e-06
7.35227e-06
2.01314e-06
2.0408e-06
7.98183e-06
4.41293e-06
7.1389e-06
1.20123e-06
5.03343e-06
1.61257e-06
4.12601e-06
8.73748e-06
4.37849e-06
7.97173e-06
2.13557e-06
3.38137e-06
9.48623e-06
7.40262e-06
1.80226e-06
2.10222e-06
7.98889e-06
1.87983e-06
7.44814e-06
4.19782e-06
2.37156e-06
4.31705e-06
6.06441e-06
4.30905e-06
2.16843e-06
1.8986e-06
1.81294e-06
3.89762e-06
2.44299e-06
1.65628e-06
8.01374e-06
1.64513e-06
2.3931e-06
3.01363e-06
2.99431e-06
1.36541e-06
1.87293e-06
2.09622e-06
1.94762e-06
1.87618e-06
6.37913e-06
4.58628e-06
2.02767e-06
1.61999e-06
2.41284e-06
3.8865e-06
4.44973e-06
2.29839e-06
1.17349e-05
3.11811e-06
1.354e-06
3.45063e-06
1.81846e-06
2.9382e-06
1.37381e-06
2.41464e-06
2.10451e-06
2.63927e-06
2.14166e-06
1.7943e-06
3.19976e-06
1.36989e-06
2.43489e-06
2.08158e-06
1.3601e-06
2.17203e-06
1.89924e-06
3.16996e-06
2.6119e-06
2.37677e-06
1.60225e-06
1.90684e-06
5.49206e-06
1.87878e-06
3.14313e-06
2.97301e-06
1.18454e-06
1.89263e-06
2.04166e-06
2.73572e-06
2.42405e-06
3.23083e-06
3.19752e-06
3.2142e-06
1.94492e-06
1.61196e-06
1.86876e-06
3.22435e-06
2.1114e-06
2.96917e-06
6.15288e-06
2.3097e-06
2.39729e-06
2.38029e-06
2.64508e-06
1.66557e-06
1.82377e-06
2.06583e-06
5.73271e-06
2.08467e-06
2.18324e-06
2.43522e-06
3.1188e-06
3.17316e-06
2.05447e-06
1.9592e-06
3.05718e-06
6.44327e-06
2.08796e-06
2.72615e-06
2.15709e-06
1.86812e-06
2.0028e-06
2.10999e-06
2.88994e-06
2.3222e-06
2.3979e-06
1.97629e-06
6.4127e-06
2.16225e-06
3.29198e-06
2.10223e-06
2.66566e-06
1.94415e-06
2.91865e-06
2.58116e-06
2.11703e-06
2.09534e-06
1.91719e-06
7.06046e-06
2.25203e-06
2.06378e-06
6.28159e-06
2.12147e-06
2.90924e-06
2.12921e-06
6.4487e-06
1.41701e-06
2.0682e-06
6.58062e-06
2.52584e-06
2.39732e-06
7.42191e-07
2.22368e-06
7.06751e-07
7.00657e-07
8.93749e-07
2.53536e-06
2.26535e-06
1.33607e-06
7.84725e-07
2.32303e-06
6.06694e-07
6.68276e-07
6.84307e-07
2.51242e-06
2.31629e-06
7.8367e-07
6.80839e-07
6.22692e-06
6.7471e-07
6.65305e-07
7.01158e-07
1.8232e-06
1.90695e-06
6.86722e-07
7.04792e-07
1.86445e-06
2.28572e-06
6.8045e-07
7.16005e-07
1.82373e-06
6.01079e-07
2.02791e-06
7.4579e-07
5.74423e-07
1.80052e-06
1.454e-06
2.2702e-06
1.80636e-06
2.15356e-06
1.79089e-06
1.79456e-06
6.8231e-07
2.24737e-06
1.45239e-06
1.79556e-06
6.97875e-07
6.24265e-07
6.62717e-07
1.44627e-06
1.40138e-06
2.15258e-06
1.82851e-06
1.3994e-06
1.43932e-06
2.19226e-06
6.97732e-07
1.77726e-06
1.79162e-06
6.54258e-07
7.3397e-07
2.34895e-06
7.10392e-07
6.56982e-07
6.26314e-07
2.18926e-06
6.12493e-07
6.03901e-07
5.92831e-07
5.12031e-07
5.11667e-07
4.9467e-07
4.97016e-07
4.96269e-07
5.33079e-07
4.94191e-07
4.97855e-07
4.86862e-07
4.90626e-07
4.94649e-07
4.94954e-07
4.91922e-07
4.89615e-07
4.96354e-07
4.95189e-07
4.82188e-07
1.10854e-06
5.3299e-07
5.44763e-07
5.36655e-07
5.15417e-07
5.01772e-07
5.53774e-07
5.53774e-07
5.53774e-07
5.53774e-07
5.53774e-07
5.53774e-07
5.50785e-07
5.50785e-07
7.45291e-07
7.11668e-07
4.9897e-07

NodalForce_(N) 3 343 double
-2.81494e-06 -1.11679e-07 8.77066e-08
-2.32439e-05 -6.75875e-07 -1.20105e-07
0.000485938 7.02251e-06 0.000471468
-2.4139e-05 -7.60246e-07 1.91271e-07
-2.80552e-05 -8.12769e-08 -4.21605e-06
-2.79661e-05 2.23805e-07 -5.26999e-06
-5.18797e-05 1.02428e-06 -1.37666e-05
-3.38603e-05 2.62879e-07 -6.27437e-06
-2.72216e-05 5.51771e-07 -7.71688e-06
-1.85051e-05 7.8306e-08 -2.66676e-06
-5.53787e-06 -8.30259e-09 -1.61429e-06
-2.956e-05 2.69971e-07 -7.69808e-06
-1.00115e-05 -1.21754e-07 -2.30356e-06
-1.78596e-05 -5.09244e-07 -2.68924e-07
-5.65947e-06 5.51194e-08 -1.66652e-06
-3.38968e-05 1.01458e-06 -9.64314e-06
-2.88748e-05 5.39226e-07 -6.26097e-06
-1.56124e-05 -4.49846e-07 -3.86497e-07
0.00104896 0.000585592 8.16104e-05
-8.86322e-06 -3.65789e-07 1.00478e-07
-3.07931e-05 2.13512e-07 -6.29629e-06
-5.98052e-05 9.06677e-07 -1.64938e-05
0.00190937 -0.000272576 0.000532848
-1.48701e-05 -2.84418e-07 -1.50527e-06
-4.18327e-05 -2.60939e-07 -6.06171e-06
-2.32415e-05 -2.29797e-07 -2.58453e-06
-3.68412e-06 -2.35327e-07 2.74238e-08
-1.24974e-05 -4.47721e-07 -1.41525e-06
-7.3101e-06 -2.18522e-07 -3.32536e-07
-2.00638e-05 -8.53235e-07 -1.84626e-07
-2.56926e-05 -4.3426e-07 -2.95101e-06
-7.76097e-05 3.72767e-06 -2.73599e-05
-5.33679e-05 1.89235e-06 -1.92113e-05
-4.36092e-05 1.38694e-06 -1.35789e-05
-2.79151e-05 9.44971e-07 -8.80251e-06
-5.84606e-05 1.70644e-06 -1.51564e-05
-2.42061e-05 6.74312e-07 -6.76084e-06
-8.94244e-05 1.70443e-06 -2.11718e-05
-1.30265e-05 -1.08917e-07 -1.41362e-06
-1.83422e-05 1.14442e-07 -4.26141e-06
-1.78796e-05 -2.54185e-07 -1.71543e-06
-3.52345e-05 7.82646e-07 -7.99049e-06
-1.9133e-05 -2.9197e-07 -5.33305e-07
-5.07671e-06 -9.99594e-08 -3.62793e-07
-2.33136e-05 2.04013e-08 -2.53714e-06
0.00107227 -4.95884e-05 -0.000291161
-8.76068e-06 -2.20527e-07 -2.35034e-08
0.000233313 0.000455285 -0.000683883
-1.76075e-05 -4.7516e-07 -7.12608e-07
-2.74028e-06 -9.19814e-08 2.9858e-08
-1.00592e-05 5.14631e-07 -3.95904e-06
-2.36919e-05 7.09375e-07 -7.34377e-06
-1.72737e-05 -6.68787e-07 -3.26016e-07
-9.90364e-06 -1.7211e-07 -6.87376e-07
-8.22312e-06 -2.67567e-07 -6.47077e-08
-2.7062e-05 1.25331e-06 -1.10042e-05
0.00101541 -0.000380342 -1.04027e-05
-4.31904e-06 -1.46276e-07 2.74409e-08
0.00216466 -0.000661882 0.000829111
-1.3434e-05 5.91967e-07 -5.04214e-06
-4.02255e-06 -2.75706e-08 -7.27917e-07
-2.49533e-05 3.9287e-07 -8.06347e-06
-9.66369e-05 6.04281e-07 -2.26476e-05
-4.33437e-05 7.80888e-07 -1.19253e-05
-2.039e-05 -3.72898e-07 -1.4462e-06
-5.12015e-06 -2.28908e-07 -3.14721e-08
-4.40195e-06 -1.50773e-07 -2.79004e-07
-2.3177e-05 5.84181e-07 -7.28223e-06
-2.3605e-05 7.80453e-07 -7.45709e-06
-2.4219e-05 -1.33588e-08 -6.96244e-06
-5.82357e-06 -1.39866e-07 -4.18389e-07
-2.61875e-06 -4.16755e-08 -4.70887e-07
-6.04351e-06 -2.77601e-07 -2.32863e-07
-1.60574e-05 1.06668e-07 -3.47137e-06
-1.30562e-05 -2.39338e-07 -6.53207e-07
0.00162165 -0.000409903 -0.000642644
-1.86925e-05 -7.51619e-08 -2.4399e-06
-2.79935e-06 -9.58451e-08 3.46477e-08
-1.29192e-05 6.22405e-07 -4.4646e-06
-1.50725e-05 4.38051e-07 -4.57229e-06
-1.09599e-05 4.07278e-08 -2.32782e-06
-8.58625e-06 2.54223e-07 -2.14148e-06
-2.90656e-05 1.1868e-06 -1.00312e-05
-1.24074e-05 -3.05699e-07 -6.99982e-07
0.00138037 0.00038053 0.000224068
-2.76275e-06 -1.41942e-07 6.4248e-08
0.00127512 -0.00020743 -0.000244359
0.00134298 -0.000244793 -0.000476115
0.00113517 0.000720199 -0.000495197
-6.9456e-06 -1.7346e-07 -2.92432e-07
-3.25391e-06 -1.21961e-07 2.3018e-08
-1.89112e-05 2.13083e-07 -3.54075e-06
-1.59147e-05 -8.19261e-08 -2.77807e-06
-8.09805e-06 2.69065e-07 -3.27898e-06
-6.71602e-05 1.7759e-06 -2.46808e-05
-1.73793e-05 -2.01156e-07 -3.65768e-06
-3.10309e-05 -5.26798e-08 -5.52033e-06
-1.45375e-05 2.79868e-07 -4.47697e-06
0.00197032 0.000872257 -1.08966e-06
-3.25195e-05 9.10549e-07 -7.80554e-06
-2.1494e-05 -2.36763e-07 -3.36767e-06
-3.41112e-05 2.04989e-08 -6.06078e-06
-2.608e-06 -1.74486e-08 -2.18966e-07
-2.94105e-05 1.07055e-06 -9.08131e-06
-3.46112e-06 -9.73724e-08 -1.68097e-07
-1.89596e-05 -3.72889e-07 -3.33856e-06
-4.14567e-05 5.88101e-07 -7.86572e-06
-2.31262e-05 6.37122e-08 -7.46857e-06
-2.8972e-05 1.88968e-07 -6.98576e-06
-1.47547e-06 -7.42877e-08 1.76439e-08
-2.10354e-05 1.52013e-07 -4.25744e-06
-3.98763e-05 -1.2552e-08 -5.91808e-06
-3.59549e-05 7.81527e-08 -6.31171e-06
0.000599091 0.000443409 -0.000429565
-1.5508e-05 1.68916e-07 -4.60546e-06
-8.55101e-06 -2.74907e-07 -9.84135e-08
-1.45868e-05 4.17187e-07 -4.32531e-06
-4.48688e-05 1.13357e-06 -1.22917e-05
-2.15709e-05 1.01134e-07 -3.89982e-06
-9.27706e-06 -6.65163e-09 -2.71131e-06
-2.76488e-05 5.688e-07 -9.81823e-06
-3.20397e-05 7.67003e-07 -1.02151e-05
-3.87273e-06 -2.02559e-07 3.07845e-08
0.00141311 1.70552e-05 0.000442651
-1.42416e-06 -5.05462e-08 5.16823e-08
-1.21823e-05 4.56081e-07 -4.22418e-06
-2.05784e-05 -4.92468e-08 -3.43761e-06
0.00187726 0.000378895 -0.000897748
-1.13576e-06 -2.50159e-09 -2.07068e-08
-2.55954e-05 -1.45155e-07 -2.4519e-06
-8.82993e-06 3.82898e-07 -3.08926e-06
-1.50716e-05 7.16205e-07 -5.77163e-06
-7.59468e-06 9.92117e-08 -2.85235e-06
-1.04897e-05 4.15496e-07 -4.2942e-06
0.00170543 1.64822e-05 0.000403566
-1.60358e-06 -9.50015e-08 1.74825e-08
0.00159767 -0.00027512 0.000558059
-1.22621e-05 -5.58185e-08 -3.1718e-06
-1.43918e-05 3.68995e-07 -4.25601e-06
-4.24115e-05 7.65589e-07 -1.06105e-05
-1.99635e-05 1.04435e-06 -8.56871e-06
-7.12864e-06 1.83652e-07 -3.05309e-06
-7.80004e-06 6.24159e-08 -2.88073e-06
-1.42577e-05 3.66785e-07 -5.61836e-06
0.00117926 0.000496806 -0.000803745
-1.29694e-05 -1.55444e-08 -4.19272e-06
-6.6362e-06 -1.91961e-07 -6.5751e-07
-7.27426e-05 9.85074e-07 -1.69331e-05
-2.35128e-05 5.21543e-07 -6.92025e-06
-3.72284e-06 9.30784e-09 -5.41018e-07
-7.7495e-06 -1.49322e-07 -4.15451e-07
-1.66956e-06 -1.16001e-07 6.29487e-08
0.00232853 0.00056218 7.21544e-05
-8.77885e-06 3.39338e-07 -3.21529e-06
-1.32849e-05 2.13997e-07 -2.82693e-06
-8.24076e-06 4.93994e-07 -3.28645e-06
0.00146718 8.03795e-05 -0.000707217
0.0015662 0.000640223 0.00151588
-6.01593e-06 2.65079e-07 -2.37295e-06
-1.96984e-05 5.71671e-07 -7.44212e-06
-3.20442e-06 -6.10604e-08 -4.49028e-07
-3.4451e-06 -9.45555e-08 -3.4888e-07
-1.28695e-05 -3.77338e-08 -2.6671e-06
-3.78744e-06 1.23968e-07 -1.35898e-06
-1.28668e-05 6.57911e-07 -5.25815e-06
-8.57479e-06 5.21568e-07 -3.65393e-06
-1.84485e-05 -3.83353e-08 -3.56047e-06
-7.80889e-06 -1.88923e-07 -6.13685e-07
-1.57965e-05 1.45952e-07 -3.4157e-06
-1.01838e-05 1.3015e-07 -2.29838e-06
-9.78666e-06 -1.21758e-08 -1.63776e-06
-2.91068e-05 4.18758e-07 -6.13921e-06
-1.09049e-05 -1.22851e-07 -2.37934e-06
-3.9864e-06 4.37722e-08 -7.73776e-07
-5.83788e-06 9.42922e-08 -1.77107e-06
-2.27852e-06 4.68057e-08 -7.02453e-07
-8.23e-06 3.41233e-07 -2.93521e-06
-2.43482e-06 -4.54737e-08 -1.90842e-07
-2.01982e-05 5.48337e-07 -6.14976e-06
0.00195295 0.000115876 0.000449619
-1.85682e-05 7.14886e-07 -7.70678e-06
-2.2876e-05 1.8973e-07 -5.3337e-06
-2.48942e-05 3.71452e-07 -6.99121e-06
0.00149159 -0.00019915 -0.00034055
-1.86367e-06 1.89098e-08 -3.06498e-07
-7.12796e-06 6.97372e-08 -2.72016e-06
-1.34169e-05 5.17919e-07 -5.93973e-06
-9.48226e-06 4.27567e-07 -4.18038e-06
-1.14171e-05 1.98243e-07 -2.22894e-06
-2.19568e-05 2.07661e-07 -3.42062e-06
-9.7575e-06 1.09809e-07 -1.63764e-06
-1.06606e-05 3.22401e-07 -2.93628e-06
-3.31986e-06 -6.97745e-08 -6.89147e-07
-9.59832e-06 -1.25289e-07 -1.1004e-06
-3.01186e-06 -9.89371e-08 -1.19524e-07
-3.40899e-06 -1.1341e-07 -1.98815e-07
-1.64174e-05 2.80119e-07 -4.54197e-06
-1.74576e-05 -2.60077e-07 -1.82252e-06
-1.47077e-05 3.91431e-07 -4.70289e-06
-1.26338e-05 1.62978e-08 -2.37785e-06
-1.6693e-05 3.6452e-07 -4.34426e-06
0.00181976 -0.000454842 -0.000247078
-3.07279e-06 -1.10083e-07 -1.10067e-08
0.00151996 -0.000694337 0.000180294
-7.56334e-06 -9.31793e-08 -9.37162e-07
-1.10178e-05 -5.20157e-08 -1.34232e-06
-2.48424e-05 -1.45225e-07 -3.46459e-06
-1.28361e-05 5.55221e-08 -2.58942e-06
-1.02148e-05 -1.5679e-07 -1.68898e-06
-7.23557e-06 -8.6094e-08 -1.4332e-06
-1.9022e-06 -6.04906e-08 4.10512e-08
-1.42504e-05 6.0284e-08 -3.32331e-06
-1.2981e-05 4.72416e-07 -4.95071e-06
-1.46765e-05 3.46253e-07 -3.57397e-06
-6.03121e-06 1.89771e-07 -2.21888e-06
-4.43057e-06 -2.54236e-07 -1.26646e-07
-1.11614e-05 3.79845e-07 -4.68588e-06
-1.01716e-05 -2.56904e-07 -3.99164e-07
-1.08303e-05 -3.25241e-08 -1.83155e-06
-2.34017e-05 1.89453e-07 -5.43417e-06
-7.20472e-06 1.39142e-07 -1.62235e-06
-1.74699e-05 5.48934e-07 -6.14616e-06
-8.50588e-06 3.71554e-08 -1.31907e-06
-1.32522e-05 -9.57805e-08 -3.33457e-06
-5.42973e-06 -9.89561e-08 -2.68773e-07
0.00177886 0.000202495 0.000730919
-4.4746e-06 9.31037e-08 -1.32578e-06
-5.6161e-06 -5.46477e-08 -1.32321e-06
-1.81069e-05 -2.67466e-07 -1.21733e-06
-6.90308e-06 1.13878e-08 -7.93756e-07
-5.45425e-06 -1.32129e-07 -5.38874e-07
-1.44285e-05 -1.5237e-07 -1.3947e-06
0.00228452 -0.00105935 5.93681e-05
0.0018952 0.000534228 -0.00104453
-9.37414e-06 -1.29299e-07 -1.3687e-06
-2.3756e-05 3.2567e-08 -3.12982e-06
-5.50333e-06 -1.131e-07 -8.43318e-07
-1.42442e-05 4.57039e-07 -4.74263e-06
-1.66219e-05 -2.20968e-07 -1.25501e-06
-6.77184e-06 2.19732e-07 -2.48126e-06
-1.89555e-05 4.04289e-07 -5.34688e-06
0.000829215 0.00068027 -1.87193e-05
-1.65109e-05 2.36265e-07 -3.96345e-06
-1.95426e-06 -5.20708e-08 -1.65469e-07
0.000783201 7.64068e-05 -0.000946398
-2.24745e-06 7.10153e-08 -7.06489e-07
0.00228838 -0.000914762 0.000141319
-1.82784e-05 4.0729e-07 -5.12521e-06
-1.12379e-05 2.08102e-07 -3.04503e-06
0.000675726 -0.00102647 0.000246471
-9.87582e-06 -1.34066e-07 -1.36001e-06
0.000804526 0.00116118 -4.34168e-05
-4.73613e-06 4.37155e-09 -1.46772e-06
-4.54064e-06 1.9571e-07 -1.63844e-06
-9.5025e-06 -1.5112e-07 -1.15851e-06
-1.55732e-05 3.4511e-07 -5.25878e-06
-3.25616e-06 -7.70912e-08 -4.38767e-07
0.000692327 -0.000100044 0.00077461
-1.51731e-05 -1.4084e-07 -1.25182e-06
-1.43621e-06 -3.7455e-08 -5.21466e-07
-4.05654e-06 2.57204e-08 -1.52021e-06
0.000414486 -0.000502661 0.000994585
-1.34212e-05 2.2973e-07 -3.43022e-06
-1.56129e-05 3.55088e-07 -4.38088e-06
-4.5276e-06 1.39809e-08 -1.54094e-06
-5.85566e-06 7.82064e-08 -1.58025e-06
-1.75882e-06 -4.53427e-08 3.57621e-08
0.00118256 0.000580812 2.96233e-05
0.000574711 -0.000920847 0.000317
0.000505843 -0.00100664 0.000317884
-1.39199e-05 1.85092e-07 -3.42296e-06
-4.58768e-06 1.30844e-07 -1.39827e-06
-6.7114e-06 -8.28812e-09 -6.69726e-07
-4.07856e-06 2.25449e-07 -1.81543e-06
0.000791289 0.000492904 0.000123334
0.00052281 0.00025863 -0.000497931
-9.15265e-07 -3.15145e-08 -1.4246e-08
-1.35955e-06 -5.55622e-08 1.87437e-08
-9.27492e-06 4.7214e-07 -3.63899e-06
-1.37363e-06 -1.48212e-08 -2.10262e-08
0.000886347 -0.000270389 -0.000326873
-1.06546e-05 5.91984e-07 -4.38667e-06