# vtk DataFile Version 4.2
vtk output
ASCII
DATASET UNSTRUCTURED_GRID

POINTS 343 double
0.00129642 0.00420169 -6.32851e-06
0.00250863 0.0049959 0.00216249
0 0.00419538 0.00112517
0.0022316 0.00196618 0.00193082
0.00600798 0.00244441 0.00500061
0.00600889 0.0038648 0.00636244
0.00887421 0.00482663 0.00494987
0.00723819 0.00489173 0.00365648
0.00795867 0.00333715 0.00686397
0.00579483 0.00502491 0.00496946
0.00486333 0.00114891 0.00996524
0.00614203 0.00211886 0.00786416
0.00487455 2.49352e-05 0.00828645
0.00232714 0.00201471 0.00802159
0.00498347 0.00256272 0.00996412
0.00809374 0.00649013 0.0068954
0.0074578 0.00622292 0.00514236
0.00261553 0.00219886 0.00513251
0 0.00143586 0.00417514
0.0018422 0.00347585 0.00402751
0.00795805 0.00324297 0.00312443
0.00902407 0.00227224 0.00501345
0 0.00270918 0.00154168
0.00483623 0.00145936 -1.79932e-05
0.00582253 0.00222433 0.00217204
0.00460008 0.00355343 0.00158331
0.00155604 7.24309e-06 0.00405205
0.00486618 2.46083e-05 0.00166645
0.003042 0.00696787 -1.17912e-05
0.00223667 0.0080646 0.0019334
0.0047426 0.00627363 0.00162464
0.00932048 0.00803118 0.00793206
0.00927929 0.00486943 0.00795712
0.00976764 0.00613305 0.00588842
0.0116458 0.00887524 0.00413113
0.00881796 0.00767987 0.00491518
0.0099773 0.0100239 0.00411452
0.00928723 0.00801683 0.00197571
0.00410038 0.00305941 0.00693734
0.00515395 0.00369119 0.00829028
0.00451828 0.00162874 0.00594493
0.00581222 0.00769803 0.00764011
0.00229698 0.00802042 0.00797802
0.00327219 0.0100122 0.00710986
0.00453906 0.00842207 0.00593335
0 0.00695361 0.00262895
0.00190113 0.00624937 0.00407827
0 0.0040177 0.00850214
0.00267609 0.00499963 0.00764778
0.00165616 0.00418278 0.00999158
0.00835558 0.00716039 0.00993453
0.00711544 0.00600915 0.00836814
0.00236899 0.00795426 0.00472972
0.00352278 0.00696249 0.00644997
0.00183286 0.00608811 0.0059166
0.0116403 0.00584711 0.00822753
0 0.00718191 0.00711644
0.00183003 0.00578321 -8.61679e-06
0 0.00577432 0.00158701
0.0116425 0.00721526 0.0070342
0.00332725 0.00336734 0.00997752
0.0116232 0.00149094 0.00411335
0.00936653 0.00200515 0.00193963
0.00977255 0.00356211 0.00394797
0.00432433 0.0016749 0.00410601
0.00174024 0.0100083 0.00580613
0.00326124 1.70615e-05 0.00711081
0.00710836 0.00421262 0.00832674
0.0116373 0.00730784 0.00413372
0.00994754 4.73987e-05 0.00411553
0.00388002 0.00289229 -1.46637e-05
0.0031348 0.00155707 0.00997899
0.00327175 1.70525e-05 0.00281526
0.00557142 0.005225 0.00751905
0.00365975 0.0031667 0.00314817
0 0.00849157 0.00581511
0.00565023 0.00370269 0.00375802
0.00177697 0.00271779 -8.39034e-06
0.00674635 0.00834894 0.00994792
0.00695949 0.0100207 0.00845683
0.00489032 0.0100168 0.00828626
0.00466476 0.00852184 0.00996588
0.0116449 0.0085184 0.00574065
0.0036437 0.00685366 0.00313153
0 0.00748929 0.00137438
0.00158451 0.00749734 -7.65701e-06
0 0.00287343 0.00335182
0 0.00580816 0.00831736
0 0.00429792 0.00253898
0.00293572 0.004312 -1.15716e-05
0.00165613 0.00582778 0.00999149
0.00600953 0.00650081 0.00636498
0.00417779 0.00653176 0.00820769
0.00807921 0.00266425 0.0099376
0.009327 0.00200099 0.00796899
0.00808989 3.94802e-05 0.0030444
0.00698274 0.00169799 0.00357928
0.011625 0.00292285 0.00329451
0 0.00140616 0.00256446
0.00740996 0.00825321 0.00637562
0.00675123 0.00146819 -2.42453e-05
0.00700631 0.00358353 0.00157441
0.00365569 0.0100133 0.00580518
0.00997194 0.0100245 0.00577139
0.00296436 0.0014208 -1.17635e-05
0.00693185 3.47869e-05 0.00146537
0.00730089 0.00831265 0.00358099
0.00994324 4.76296e-05 0.00577184
0.00720141 0.00170756 0.00632151
0.00162096 0.00257206 0.0099916
0.00827852 0.0072098 -3.07502e-05
0.00599889 0.00771302 0.00214192
0.00690237 0.00612101 0.00157327
0 0.00686719 0.00578184
0.0116246 0.00146175 0.00251218
0.002048 0.00362045 0.00639743
0.0116447 0.00851274 0.00256936
0.00978402 0.0062233 0.00408149
0.00695585 0.0100198 0.0014642
0.00809175 4.0102e-05 0.00687455
0.0116248 0.00149038 0.00574533
0.00976243 0.00361377 0.00599974
0.00173759 8.14348e-06 0.00580641
0 0.0013659 0.00748679
0.00157733 7.62658e-06 0.00752151
0.0116377 0.00690174 0.00570717
0.00676237 0.00851457 -2.48932e-05
0 0.0075208 0.00859127
0.00157584 0.007495 0.00999173
0.00490567 0.00822479 0.00360319
0.0100151 0.0100237 0.0074417
0.0116514 0.00865632 0.00744075
0.00670332 0.00161919 0.00994913
0.00844243 0.00422341 0.00993399
0 0.0057735 0.00666667
0.00157996 0.0100074 0.00752114
0 0.00863025 0.00752641
0.00997977 4.84154e-05 0.00246211
0.0116363 0.00698791 0.00257508
0.00984087 0.00637488 0.00212001
0.00990958 0.00585927 0.00992193
0.0087076 0.00141491 0.00993215
0.00998614 4.88061e-05 0.00744291
0.01163 0.00142135 0.00740247
0 0.00143551 0.00581971
0.00693483 3.52341e-05 0.00845745
0.00487542 2.49027e-05 0.00337614
0.00922369 0.00474401 0.0019954
0.0116282 0.00434261 0.00248736
0.00490781 0.0100161 0.00663768
0.00328209 0.0100117 0.00281483
0.00151165 7.27085e-06 0.0024105
0 0.00727418 0.00419576
0.0116357 0.00581307 0.00658658
0.00811731 0.0100215 0.0030426
0.00874642 0.00866313 0.009931
0 0.00574334 0.00336387
0 0.0043297 0.00416652
0.00799048 0.00581515 0.00993776
0.011629 0.00307154 0.00683517
0.00489033 2.52795e-05 0.00663842
0.00286958 0.0100106 0.00859464
0.008697 0.00140701 -3.15947e-05
0.00671247 0.0066931 0.00994841
0.0116495 0.007553 0.00849905
0.0100321 0.00758419 0.00992019
0.00803137 0.00305849 -2.89209e-05
0.00389609 0.00576165 -1.46332e-05
0.0087641 0.00865637 -3.24258e-05
0.00875395 0.0100215 0.00135039
0.00671819 0.00689256 -2.46036e-05
0.00810662 0.00640096 0.00299516
0.00872606 4.32289e-05 0.00135161
0.00334075 0.00501483 0.00997744
0.00502506 0.00585611 0.00996288
0.00502212 0.00418963 0.00996323
0.00875978 0.0100221 0.00855161
0.00286037 1.50087e-05 0.00859559
0.0116315 0.00578347 0.0033068
0 0.00302218 0.00691532
0.0116361 0.00406466 0.00841064
0.00988918 0.00405818 -3.52155e-05
0.0116273 0.00275885 0.0014976
0 0.00244495 0.00857025
0.00283311 0.00858267 0.00998105
0.00873221 4.36094e-05 0.00855251
0.00987732 0.00266713 0.00992203
0.0103048 0.00423541 0.00991784
0.00659294 0.0100195 0.00579437
0.00601965 0.00760682 0.00499966
0.00655981 0.010019 0.00418075
0.00811813 0.0100223 0.00687385
0.00350298 0.0069323 0.00997574
0.00482898 0.0043523 -1.75197e-05
0.00327503 1.64553e-05 0.00438808
0.00364317 1.88885e-05 0.00580665
0.0116315 0.00424056 0.00108313
0.00421745 0.00835452 0.00156933
0.0116279 0.00437383 0.0041037
0.00774785 0.00580315 -2.83603e-05
0.0100093 0.0100232 0.00246033
0 0.00848692 0.00262374
0.0015589 0.0100078 0.0040518
0 0.00885053 0.00419359
0.00486978 0.00886818 -1.82687e-05
0.00488245 0.0100155 0.00166584
0.00579588 0.00481746 0.00235323
0.00839001 0.00455592 -3.02117e-05
0.00653687 3.2692e-05 0.00418309
0.00657057 3.31672e-05 0.00579572
0.00151436 0.0100072 0.00241005
0.00996516 0.00248943 -3.59005e-05
0.0116328 0.00456616 0.00713667
0.00828343 0.010022 0.00495318
0.00666943 0.00339419 0.00994936
0.00283819 1.50305e-05 0.00134341
0.0116349 0.00249713 0.00847826
0.00276609 0.00480437 0.00498571
0.00677143 0.00435991 -2.42143e-05
0.00967854 0.00584149 -3.46512e-05
0.00637181 0.0100195 0.00718009
0.0116291 0.00437448 0.00575957
0.0062808 0.0100185 0.00274579
0.00825633 4.0537e-05 0.00495447
0.00328503 0.0100121 0.00438709
0 0.00452174 0.00721958
0.0052511 0.00724176 0.00996083
0.00634978 3.23232e-05 0.00717993
0.00416868 0.00509339 0.00357497
0.00493508 0.0100155 0.00498136
0.00491713 2.56064e-05 0.00498324
0.00424778 0.00523649 0.00615207
0 0.005744 0.00499998
0 0.00433013 0.00583333
0.00580265 0.00576898 -2.09222e-05
0.00578152 0.00636377 0.00352529
0.00625897 3.1264e-05 0.00274716
0.0116323 0.00578341 0.00493122
0.00427156 0.00642782 0.00482176
0.00667328 0.00502847 0.00994907
0.0116345 0.00581285 0.00154229
0 0.00666667 0
0.0100053 0.00755076 -3.61839e-05
0.00385676 2.0396e-05 -1.48855e-05
0 0.01 0.00666667
0.00581971 0.0100175 0.00995682
0 0.00288419 0.00499914
0.0116415 0.0075204 0.00133056
0.0116427 0.00670089 -3.92872e-05
0 0.005 0.01
0.00579664 0.00291161 -2.0935e-05
0 0.005 0
0.0116282 6.27697e-05 0.00327681
0.0116626 0.0100166 0.00658557
0.00486826 0.00729426 -1.79669e-05
0.0116256 0.00293438 0.00493082
0.00579577 3.04271e-05 -2.20045e-05
0 0 0.00666667
0.00439418 0.00363741 0.00520325
0.00579989 2.92882e-05 0.00995725
0.0116317 6.2792e-05 0.00658704
0 0 0.005
0.0102364 0.0100219 0.00117917
0.0116503 0.0088041 0.0011769
0.0116287 6.25688e-05 0.00493127
0.011638 0.0050418 -3.79322e-05
0.00140523 0.00122662 -6.74174e-06
0 0.00122008 0.00122008
0 0.00333333 0.01
0 0.00666667 0.01
0.0102322 0.0088057 -3.71981e-05
0.0116586 0.0100154 0.0032744
0.00489232 0.0100154 0.0033747
0.0116561 0.00670236 0.00989881
0 0.00333333 0
0 0.00122008 0.00877992
0.00140548 6.86336e-06 0.00877288
0.00140579 0.00122677 0.00999269
0.0102425 0.0100227 0.00870137
0.00140759 0.00878678 0.00999244
0 0.00877992 0.00877992
0.0116579 0.00880469 0.0086868
0.00776393 0.0100195 -3.03706e-05
0.0116277 0.00127709 0.00117685
0.00140826 0.0100062 0.00877282
0.0102408 0.00880611 0.00991752
0.0116508 0.00504237 0.0098994
0 0 0.00333333
0.0077378 3.9918e-05 -2.91447e-05
0.010206 5.09758e-05 0.00117978
0.00139525 6.87843e-06 0.00120496
0 0.00877992 0.00122008
0.00140664 0.00878678 -6.74442e-06
0.0013978 0.0100062 0.00120426
0.0116359 0.00127675 0.00868717
0.010219 0.00126865 0.00991836
0.00774377 3.89268e-05 0.00994038
0.0102093 0.00126928 -3.6563e-05
0.0102134 5.08021e-05 0.00870218
0.0116347 0.00338176 -3.75552e-05
0.00387187 0.010013 0.00997306
0.00284688 0.0100104 0.00134288
0.00776994 0.0100207 0.00994021
0.0116462 0.00338218 0.00989941
0 0.01 0.005
0.00303837 0.00849993 -1.1975e-05
0.0116593 0.0100158 0.00493195
0 0.01 0.00333333
0 0.00166667 0
0.01163 6.20668e-05 0.00162059
0 0.00166667 0.01
0 0.00833333 0
0.0116522 0.00836007 -3.92168e-05
0.0116371 6.22147e-05 0.00824391
0.0116608 0.010017 0.00162033
0.0116677 0.0100174 0.00824292
0.00192859 0.0100069 0.0099887
0 0.01 0.00833333
0.00971706 0.0100205 -3.68722e-05
0.00968696 4.97855e-05 -3.60073e-05
0.00969598 4.8676e-05 0.00992349
0.00972461 0.0100216 0.00992289
0 0 0.00833333
0.011664 0.00836009 0.00989968
0.00192206 1.04366e-05 -8.77264e-06
0 0 0.00166667
0.00386935 0.0100129 -1.5012e-05
0.0116444 0.00172192 0.00990043
0.0116332 0.00172262 -3.83396e-05
0.00192291 9.88349e-06 0.00998896
0.00192719 0.0100074 -8.64586e-06
0 0.01 0.00166667
0.0116747 0.0100197 0.00990141
0 0 0.01
0.0116647 0.0100177 -4.09567e-05
0.0116446 6.06714e-05 0.00990263
0 0.01 0.01
0.0116341 6.16956e-05 -4.0173e-05
0 0.01 0
0 0 0
0.00581516 0.0100166 -2.24942e-05
0.00385987 1.94309e-05 0.00997282
0 0.00833333 0.01

CELLS 343 686
1 0
1 1
1 2
1 3
1 4
1 5
1 6
1 7
1 8
1 9
1 10
1 11
1 12
1 13
1 14
1 15
1 16
1 17
1 18
1 19
1 20
1 21
1 22
1 23
1 24
1 25
1 26
1 27
1 28
1 29
1 30
1 31
1 32
1 33
1 34
1 35
1 36
1 37
1 38
1 39
1 40
1 41
1 42
1 43
1 44
1 45
1 46
1 47
1 48
1 49
1 50
1 51
1 52
1 53
1 54
1 55
1 56
1 57
1 58
1 59
1 60
1 61
1 62
1 63
1 64
1 65
1 66
1 67
1 68
1 69
1 70
1 71
1 72
1 73
1 74
1 75
1 76
1 77
1 78
1 79
1 80
1 81
1 82
1 83
1 84
1 85
1 86
1 87
1 88
1 89
1 90
1 91
1 92
1 93
1 94
1 95
1 96
1 97
1 98
1 99
1 100
1 101
1 102
1 103
1 104
1 105
1 106
1 107
1 108
1 109
1 110
1 111
1 112
1 113
1 114
1 115
1 116
1 117
1 118
1 119
1 120
1 121
1 122
1 123
1 124
1 125
1 126
1 127
1 128
1 129
1 130
1 131
1 132
1 133
1 134
1 135
1 136
1 137
1 138
1 139
1 140
1 141
1 142
1 143
1 144
1 145
1 146
1 147
1 148
1 149
1 150
1 151
1 152
1 153
1 154
1 155
1 156
1 157
1 158
1 159
1 160
1 161
1 162
1 163
1 164
1 165
1 166
1 167
1 168
1 169
1 170
1 171
1 172
1 173
1 174
1 175
1 176
1 177
1 178
1 179
1 180
1 181
1 182
1 183
1 184
1 185
1 186
1 187
1 188
1 189
1 190
1 191
1 192
1 193
1 194
1 195
1 196
1 197
1 198
1 199
1 200
1 201
1 202
1 203
1 204
1 205
1 206
1 207
1 208
1 209
1 210
1 211
1 212
1 213
1 214
1 215
1 216
1 217
1 218
1 219
1 220
1 221
1 222
1 223
1 224
1 225
1 226
1 227
1 228
1 229
1 230
1 231
1 232
1 233
1 234
1 235
1 236
1 237
1 238
1 239
1 240
1 241
1 242
1 243
1 244
1 245
1 246
1 247
1 248
1 249
1 250
1 251
1 252
1 253
1 254
1 255
1 256
1 257
1 258
1 259
1 260
1 261
1 262
1 263
1 264
1 265
1 266
1 267
1 268
1 269
1 270
1 271
1 272
1 273
1 274
1 275
1 276
1 277
1 278
1 279
1 280
1 281
1 282
1 283
1 284
1 285
1 286
1 287
1 288
1 289
1 290
1 291
1 292
1 293
1 294
1 295
1 296
1 297
1 298
1 299
1 300
1 301
1 302
1 303
1 304
1 305
1 306
1 307
1 308
1 309
1 310
1 311
1 312
1 313
1 314
1 315
1 316
1 317
1 318
1 319
1 320
1 321
1 322
1 323
1 324
1 325
1 326
1 327
1 328
1 329
1 330
1 331
1 332
1 333
1 334
1 335
1 336
1 337
1 338
1 339
1 340
1 341
1 342

CELL_TYPES 343
1
1
1
1
1
1
1
1
1
1
1
1
1
1
1
1
1
1
1
1
1
1
1
1
1
1
1
1
1
1
1
1
1
1
1
1
1
1
1
1
1
1
1
1
1
1
1
1
1
1
1
1
1
1
1
1
1
1
1
1
1
1
1
1
1
1
1
1
1
1
1
1
1
1
1
1
1
1
1
1
1
1
1
1
1
1
1
1
1
1
1
1
1
1
1
1
1
1
1
1
1
1
1
1
1
1
1
1
1
1
1
1
1
1
1
1
1
1
1
1
1
1
1
1
1
1
1
1
1
1
1
1
1
1
1
1
1
1
1
1
1
1
1
1
1
1
1
1
1
1
1
1
1
1
1
1
1
1
1
1
1
1
1
1
1
1
1
1
1
1
1
1
1
1
1
1
1
1
1
1
1
1
1
1
1
1
1
1
1
1
1
1
1
1
1
1
1
1
1
1
1
1
1
1
1
1
1
1
1
1
1
1
1
1
1
1
1
1
1
1
1
1
1
1
1
1
1
1
1
1
1
1
1
1
1
1
1
1
1
1
1
1
1
1
1
1
1
1
1
1
1
1
1
1
1
1
1
1
1
1
1
1
1
1
1
1
1
1
1
1
1
1
1
1
1
1
1
1
1
1
1
1
1
1
1
1
1
1
1
1
1
1
1
1
1
1
1
1
1
1
1
1
1
1
1
1
1
1
1
1
1
1
1
1
1
1
1
1
1
1
1
1
1
1
1
1
1
1
1
1
1
1
1
1
1
1
1
1
1
1
1
1
1

POINT_DATA 343
FIELD FieldData 8

NodeID_(#) 1 343 int
0
1
2
3
4
5
6
7
8
9
10
11
12
13
14
15
16
17
18
19
20
21
22
23
24
25
26
27
28
29
30
31
32
33
34
35
36
37
38
39
40
41
42
43
44
45
46
47
48
49
50
51
52
53
54
55
56
57
58
59
60
61
62
63
64
65
66
67
68
69
70
71
72
73
74
75
76
77
78
79
80
81
82
83
84
85
86
87
88
89
90
91
92
93
94
95
96
97
98
99
100
101
102
103
104
105
106
107
108
109
110
111
112
113
114
115
116
117
118
119
120
121
122
123
124
125
126
127
128
129
130
131
132
133
134
135
136
137
138
139
140
141
142
143
144
145
146
147
148
149
150
151
152
153
154
155
156
157
158
159
160
161
162
163
164
165
166
167
168
169
170
171
172
173
174
175
176
177
178
179
180
181
182
183
184
185
186
187
188
189
190
191
192
193
194
195
196
197
198
199
200
201
202
203
204
205
206
207
208
209
210
211
212
213
214
215
216
217
218
219
220
221
222
223
224
225
226
227
228
229
230
231
232
233
234
235
236
237
238
239
240
241
242
243
244
245
246
247
248
249
250
251
252
253
254
255
256
257
258
259
260
261
262
263
264
265
266
267
268
269
270
271
272
273
274
275
276
277
278
279
280
281
282
283
284
285
286
287
288
289
290
291
292
293
294
295
296
297
298
299
300
301
302
303
304
305
306
307
308
309
310
311
312
313
314
315
316
317
318
319
320
321
322
323
324
325
326
327
328
329
330
331
332
333
334
335
336
337
338
339
340
341
342

Component_(#) 1 343 int
0
0
0
0
0
0
0
0
0
0
0
0
0
0
0
0
0
0
0
0
0
0
0
0
0
0
0
0
0
0
0
0
0
0
0
0
0
0
0
0
0
0
0
0
0
0
0
0
0
0
0
0
0
0
0
0
0
0
0
0
0
0
0
0
0
0
0
0
0
0
0
0
0
0
0
0
0
0
0
0
0
0
0
0
0
0
0
0
0
0
0
0
0
0
0
0
0
0
0
0
0
0
0
0
0
0
0
0
0
0
0
0
0
0
0
0
0
0
0
0
0
0
0
0
0
0
0
0
0
0
0
0
0
0
0
0
0
0
0
0
0
0
0
0
0
0
0
0
0
0
0
0
0
0
0
0
0
0
0
0
0
0
0
0
0
0
0
0
0
0
0
0
0
0
0
0
0
0
0
0
0
0
0
0
0
0
0
0
0
0
0
0
0
0
0
0
0
0
0
0
0
0
0
0
0
0
0
0
0
0
0
0
0
0
0
0
0
0
0
0
0
0
0
0
0
0
0
0
0
0
0
0
0
0
0
0
0
0
0
0
0
0
0
0
0
0
0
0
0
0
0
0
0
0
0
0
0
0
0
0
0
0
0
0
0
0
0
0
0
0
0
0
0
0
0
0
0
0
0
0
0
0
0
0
0
0
0
0
0
0
0
0
0
0
0
0
0
0
0
0
0
0
0
0
0
0
0
0
0
0
0
0
0
0
0
0
0
0
0
0
0
0
0
0
0
0
0
0
0
0
0
0
0
0
0
0
0
0
0
0
0
0
0

NodalMass_(kg) 1 343 double
3.15563e-06
1.41304e-05
2.20912e-06
1.71484e-05
8.42e-06
9.09306e-06
1.01179e-05
7.52198e-06
6.81096e-06
5.58223e-06
3.10888e-06
1.07575e-05
4.87011e-06
1.64955e-05
3.0246e-06
8.05984e-06
6.703e-06
1.0877e-05
4.18978e-06
8.16106e-06
6.14143e-06
1.17902e-05
2.23114e-06
4.25176e-06
1.09915e-05
7.41467e-06
4.21871e-06
3.92484e-06
3.08766e-06
1.31268e-05
7.72627e-06
1.65404e-05
1.19037e-05
7.97564e-06
3.81683e-06
1.11001e-05
3.81317e-06
1.39137e-05
6.37414e-06
8.00975e-06
7.6712e-06
1.21135e-05
1.6399e-05
2.78633e-06
8.93599e-06
2.58087e-06
7.57362e-06
4.23241e-06
1.31286e-05
3.80168e-06
2.7746e-06
7.16776e-06
1.21307e-05
5.11765e-06
8.19728e-06
4.58094e-06
2.79503e-06
3.26126e-06
4.12443e-06
2.11915e-06
3.35177e-06
3.61669e-06
1.56838e-05
7.33679e-06
8.24695e-06
5.00369e-06
2.82625e-06
7.20276e-06
3.26815e-06
4.18751e-06
2.02785e-06
2.42152e-06
3.11835e-06
5.97459e-06
5.87101e-06
4.09374e-06
5.45463e-06
2.28825e-06
4.49759e-06
4.38192e-06
4.50892e-06
4.39234e-06
4.27273e-06
5.32031e-06
1.53201e-06
2.38869e-06
2.02885e-06
4.38798e-06
3.17972e-06
3.14298e-06
4.61567e-06
5.87645e-06
8.18088e-06
2.48341e-06
1.53815e-05
3.49683e-06
7.35227e-06
2.01314e-06
2.0408e-06
7.98183e-06
4.41293e-06
7.1389e-06
1.20123e-06
5.03343e-06
1.61257e-06
4.12601e-06
8.73748e-06
4.37849e-06
7.97173e-06
2.13557e-06
3.38137e-06
9.48623e-06
7.40262e-06
1.80226e-06
2.10222e-06
7.98889e-06
1.87983e-06
7.44814e-06
4.19782e-06
2.37156e-06
4.31705e-06
6.06441e-06
4.30905e-06
2.16843e-06
1.8986e-06
1.81294e-06
3.89762e-06
2.44299e-06
1.65628e-06
8.01374e-06
1.64513e-06
2.3931e-06
3.01363e-06
2.99431e-06
1.36541e-06
1.87293e-06
2.09622e-06
1.94762e-06
1.87618e-06
6.37913e-06
4.58628e-06
2.02767e-06
1.61999e-06
2.41284e-06
3.8865e-06
4.44973e-06
2.29839e-06
1.17349e-05
3.11811e-06
1.354e-06
3.45063e-06
1.81846e-06
2.9382e-06
1.37381e-06
2.41464e-06
2.10451e-06
2.63927e-06
2.14166e-06
1.7943e-06
3.19976e-06
1.36989e-06
2.43489e-06
2.08158e-06
1.3601e-06
2.17203e-06
1.89924e-06
3.16996e-06
2.6119e-06
2.37677e-06
1.60225e-06
1.90684e-06
5.49206e-06
1.87878e-06
3.14313e-06
2.97301e-06
1.18454e-06
1.89263e-06
2.04166e-06
2.73572e-06
2.42405e-06
3.23083e-06
3.19752e-06
3.2142e-06
1.94492e-06
1.61196e-06
1.86876e-06
3.22435e-06
2.1114e-06
2.96917e-06
6.15288e-06
2.3097e-06
2.39729e-06
2.38029e-06
2.64508e-06
1.66557e-06
1.82377e-06
2.06583e-06
5.73271e-06
2.08467e-06
2.18324e-06
2.43522e-06
3.1188e-06
3.17316e-06
2.05447e-06
1.9592e-06
3.05718e-06
6.44327e-06
2.08796e-06
2.72615e-06
2.15709e-06
1.86812e-06
2.0028e-06
2.10999e-06
2.88994e-06
2.3222e-06
2.3979e-06
1.97629e-06
6.4127e-06
2.16225e-06
3.29198e-06
2.10223e-06
2.66566e-06
1.94415e-06
2.91865e-06
2.58116e-06
2.11703e-06
2.09534e-06
1.91719e-06
7.06046e-06
2.25203e-06
2.06378e-06
6.28159e-06
2.12147e-06
2.90924e-06
2.12921e-06
6.4487e-06
1.41701e-06
2.0682e-06
6.58062e-06
2.52584e-06
2.39732e-06
7.42191e-07
2.22368e-06
7.06751e-07
7.00657e-07
8.93749e-07
2.53536e-06
2.26535e-06
1.33607e-06
7.84725e-07
2.32303e-06
6.06694e-07
6.68276e-07
6.84307e-07
2.51242e-06
2.31629e-06
7.8367e-07
6.80839e-07
6.22692e-06
6.7471e-07
6.65305e-07
7.01158e-07
1.8232e-06
1.90695e-06
6.86722e-07
7.04792e-07
1.86445e-06
2.28572e-06
6.8045e-07
7.16005e-07
1.82373e-06
6.01079e-07
2.02791e-06
7.4579e-07
5.74423e-07
1.80052e-06
1.454e-06
2.2702e-06
1.80636e-06
2.15356e-06
1.79089e-06
1.79456e-06
6.8231e-07
2.24737e-06
1.45239e-06
1.79556e-06
6.97875e-07
6.24265e-07
6.62717e-07
1.44627e-06
1.40138e-06
2.15258e-06
1.82851e-06
1.3994e-06
1.43932e-06
2.19226e-06
6.97732e-07
1.77726e-06
1.79162e-06
6.54258e-07
7.3397e-07
2.34895e-06
7.10392e-07
6.56982e-07
6.26314e-07
2.18926e-06
6.12493e-07
6.03901e-07
5.92831e-07
5.12031e-07
5.11667e-07
4.9467e-07
4.97016e-07
4.96269e-07
5.33079e-07
4.94191e-07
4.97855e-07
4.86862e-07
4.90626e-07
4.94649e-07
4.94954e-07
4.91922e-07
4.89615e-07
4.96354e-07
4.95189e-07
4.82188e-07
1.10854e-06
5.3299e-07
5.44763e-07
5.36655e-07
5.15417e-07
5.01772e-07
5.53774e-07
5.53774e-07
5.53774e-07
5.53774e-07
5.53774e-07
5.53774e-07
5.50785e-07
5.50785e-07
7.45291e-07
7.11668e-07
4.9897e-07

NodalForce_(N) 3 343 double
-3.55846e-06 3.41383e-07 -5.58597e-08
-3.04381e-05 2.59344e-06 2.51919e-08
6.05105e-05 0.000258131 0.00103219
-3.0455e-05 3.30487e-06 -2.56736e-06
-3.51745e-05 7.20642e-06 4.07793e-06
-4.48577e-05 5.15831e-06 7.74429e-06
-6.17079e-05 1.83398e-05 1.7541e-05
-3.76086e-05 9.41595e-06 7.57164e-06
-3.96432e-05 8.7837e-06 1.01554e-05
-2.65186e-05 3.37307e-06 3.83997e-06
-1.39314e-05 1.2627e-06 3.17769e-06
-5.34464e-05 7.28853e-06 1.28685e-05
-1.86397e-05 2.60341e-06 4.31004e-06
-3.66348e-05 -9.42613e-07 1.9869e-06
-1.45037e-05 1.09527e-06 3.17664e-06
-5.66307e-05 1.21557e-05 1.18209e-05
-4.09817e-05 8.31861e-06 8.76151e-06
-2.3314e-05 7.38503e-07 -1.46105e-07
0.000151498 0.000982186 0.000746135
-1.27546e-05 4.79572e-07 5.98114e-08
-2.72025e-05 1.08635e-05 6.43649e-06
-6.13671e-05 2.42056e-05 1.8222e-05
0.00162635 -0.00101759 -0.000299162
-9.57656e-06 5.53128e-06 -4.50557e-07
-3.52509e-05 1.3739e-05 2.14669e-06
-2.21743e-05 5.21401e-06 8.37226e-07
-4.81047e-06 3.22261e-07 -6.18337e-07
-8.70525e-06 5.11675e-06 -1.01443e-06
-6.97306e-06 1.10117e-06 5.57712e-07
-2.73661e-05 1.37945e-06 1.35904e-06
-2.75913e-05 4.50978e-06 2.98823e-06
-0.000138894 4.00009e-05 2.52181e-05
-8.3454e-05 2.43122e-05 2.07185e-05
-5.64792e-05 1.86568e-05 1.57418e-05
-2.87855e-05 1.37811e-05 1.14985e-05
-8.02964e-05 2.16161e-05 1.96904e-05
-3.07855e-05 1.00275e-05 8.81468e-06
-8.41317e-05 3.08161e-05 3.15395e-05
-2.23724e-05 1.00192e-06 2.73346e-06
-3.77874e-05 2.57988e-06 7.80945e-06
-2.5973e-05 3.31638e-06 1.88338e-06
-7.35506e-05 1.00322e-05 1.22733e-05
-4.20058e-05 5.20163e-07 3.39933e-06
-1.07481e-05 9.90838e-07 9.41304e-07
-4.17027e-05 4.52039e-06 5.4496e-06
0.00148618 0.000147924 -0.000403315
-1.31434e-05 3.13919e-07 8.52806e-07
0.00075265 0.00108828 -7.23917e-05
-3.51672e-05 -4.01542e-07 3.20595e-06
-6.98168e-06 -1.72352e-07 4.04512e-07
-2.17613e-05 5.48405e-06 4.06858e-06
-4.74417e-05 7.64881e-06 9.65703e-06
-2.79013e-05 8.3582e-07 2.31687e-06
-1.76381e-05 5.87519e-07 2.12474e-06
-1.44906e-05 -2.67563e-08 9.38349e-07
-3.45948e-05 1.61654e-05 9.53422e-06
0.000675577 0.000147094 0.000313821
-5.08386e-06 6.21598e-07 9.41067e-08
0.00176219 -0.000458217 0.000375865
-1.66754e-05 7.50276e-06 4.58871e-06
-1.23622e-05 6.39619e-08 1.68866e-06
-1.58355e-05 1.31686e-05 8.94758e-06
-5.77397e-05 4.40994e-05 2.19769e-05
-3.90763e-05 1.75946e-05 1.42991e-05
-2.44778e-05 4.90073e-06 -7.57794e-07
-9.70011e-06 6.98225e-08 6.10422e-07
-6.83067e-06 6.51276e-07 4.50529e-07
-4.34366e-05 6.80155e-06 1.03264e-05
-2.24165e-05 1.09405e-05 9.85805e-06
-1.67494e-05 1.28462e-05 6.36692e-06
-4.72551e-06 1.45804e-06 -7.80305e-08
-8.0792e-06 1.55791e-07 1.06825e-06
-5.92452e-06 1.99013e-06 -9.00195e-07
-3.08651e-05 2.62081e-06 5.73954e-06
-1.64705e-05 2.023e-06 -9.19623e-08
0.00119626 -1.84907e-05 -3.09492e-05
-2.17512e-05 4.1519e-06 2.18961e-06
-3.44304e-06 3.03927e-07 -6.47703e-08
-3.24839e-05 6.85091e-06 4.98363e-06
-3.38845e-05 6.92682e-06 4.09682e-06
-2.63552e-05 3.81793e-06 3.17033e-06
-2.4487e-05 3.40363e-06 3.35231e-06
-3.44018e-05 1.55738e-05 1.02458e-05
-1.70055e-05 1.4144e-06 1.37581e-06
0.00118433 -2.92461e-05 0.000429052
-3.34183e-06 1.93281e-07 8.45093e-08
0.00137565 -0.000233712 -0.000464624
0.00304745 -0.000296604 -0.000672075
0.000906238 0.000848718 -0.000761877
-6.6844e-06 1.28708e-06 1.89442e-08
-8.97809e-06 -7.87611e-08 4.79898e-07
-3.30852e-05 4.18179e-06 5.68409e-06
-3.58065e-05 1.30526e-06 5.71761e-06
-1.51541e-05 3.55e-06 4.28732e-06
-9.04048e-05 2.94157e-05 2.87068e-05
-1.15495e-05 8.24314e-06 1.9979e-06
-2.82908e-05 1.13037e-05 3.50735e-06
-9.14514e-06 7.09241e-06 5.4954e-06
0.00164964 0.000680247 -8.78589e-05
-5.66415e-05 1.16121e-05 1.06039e-05
-1.01607e-05 9.32955e-06 1.26374e-06
-2.60547e-05 1.11078e-05 5.02254e-06
-4.8068e-06 4.77686e-07 4.75124e-07
-4.42514e-05 1.37093e-05 9.34634e-06
-2.86637e-06 1.01877e-06 -1.46415e-07
-1.01148e-05 8.88144e-06 6.04185e-07
-5.31993e-05 1.19733e-05 1.06935e-05
-2.03291e-05 1.23665e-05 7.15012e-06
-3.94579e-05 9.69226e-06 8.63271e-06
-3.71722e-06 -1.29444e-07 1.75129e-07
-1.50211e-05 7.06996e-06 6.09039e-06
-4.45982e-05 8.88624e-06 7.95132e-06
-3.25149e-05 9.65672e-06 7.53004e-06
0.000741047 0.000361263 -0.000622059
-7.27964e-06 8.3473e-06 5.24174e-06
-1.50429e-05 -2.71384e-07 6.11435e-07
-1.21534e-05 6.67929e-06 6.41503e-06
-4.81618e-05 1.78216e-05 1.64963e-05
-2.29229e-05 5.50839e-06 5.66755e-06
-1.11736e-05 4.45607e-06 3.07922e-06
-2.17327e-05 1.44439e-05 9.76497e-06
-3.67745e-05 1.32962e-05 1.18089e-05
-5.98271e-06 9.24467e-08 -1.95217e-07
0.00188243 0.00061372 0.000368627
-2.72648e-06 -1.50124e-08 1.23829e-08
-1.33502e-05 6.12468e-06 4.64878e-06
-1.67439e-05 5.03214e-06 5.06772e-06
0.00143517 0.000505355 -0.000716993
-3.16306e-06 -3.35224e-08 1.80591e-07
-3.58988e-05 4.98329e-06 4.12408e-06
-1.51983e-05 4.89729e-06 2.49316e-06
-2.05159e-05 9.08094e-06 4.84853e-06
-1.63481e-05 2.76161e-06 4.35918e-06
-2.01515e-05 4.88723e-06 5.11989e-06
0.000376233 -0.000623818 0.000599818
-3.48643e-06 8.92985e-08 1.13977e-07
0.00132987 -0.000373742 0.000105607
-6.02392e-06 6.77555e-06 2.56532e-06
-1.09763e-05 6.39593e-06 6.1522e-06
-3.52269e-05 1.68934e-05 1.48587e-05
-3.61246e-05 1.22971e-05 8.13156e-06
-1.19174e-05 3.46149e-06 3.81177e-06
-8.12467e-06 4.44512e-06 3.00979e-06
-1.30076e-05 7.65565e-06 5.42946e-06
0.000919791 0.000782483 -0.000957635
-2.13012e-05 5.52376e-06 6.23902e-06
-5.90343e-06 2.49895e-06 -5.07045e-07
-5.60053e-05 2.73026e-05 2.08225e-05
-1.45517e-05 1.09675e-05 9.52334e-06
-7.49082e-06 1.09079e-06 8.97359e-07
-1.1412e-05 9.17724e-07 9.65536e-07
-1.87678e-06 2.04687e-07 -2.84908e-07
0.00263327 0.00101545 0.000134382
-9.81607e-06 4.62689e-06 3.19311e-06
-1.63286e-05 4.31789e-06 3.83551e-06
-1.79257e-05 5.4072e-06 2.68796e-06
0.00198798 -5.60386e-05 -0.000650422
-0.000347514 0.00142676 0.00267634
-1.27789e-05 2.86042e-06 2.69549e-06
-1.9229e-05 1.00769e-05 7.62716e-06
-4.65538e-06 9.82612e-07 5.45552e-07
-8.99156e-06 7.55676e-07 6.68765e-07
-5.01922e-06 6.24612e-06 2.16635e-06
-9.18643e-06 1.56507e-06 1.68906e-06
-1.80851e-05 8.05702e-06 4.1157e-06
-1.63229e-05 5.74913e-06 2.89475e-06
-9.36067e-06 7.52116e-06 3.16636e-06
-6.98359e-06 1.42558e-06 5.2203e-07
-1.17058e-05 4.95004e-06 5.42941e-06
-9.8501e-06 3.34224e-06 3.5356e-06
-7.41365e-06 2.76413e-06 2.2184e-06
-3.05804e-05 9.04897e-06 8.19598e-06
-4.81936e-06 5.72682e-06 1.43933e-06
-1.1994e-05 3.17662e-09 1.67779e-06
-1.58088e-05 1.12628e-06 2.85954e-06
-6.00184e-06 3.72488e-07 1.18284e-06
-1.69602e-05 4.81109e-06 2.08813e-06
-5.18343e-06 3.02432e-07 5.24978e-07
-1.58525e-05 9.42736e-06 8.42641e-06
0.00186654 -0.000647502 -0.000155095
-2.18271e-05 1.05599e-05 7.0628e-06
-9.80667e-06 1.00402e-05 6.97522e-06
-1.08134e-05 1.25409e-05 9.30854e-06
0.00146837 -0.000241986 -0.000133717
-5.75122e-06 4.12908e-07 5.79261e-07
-9.62498e-06 3.85446e-06 3.34161e-06
-2.08396e-05 7.35126e-06 6.46982e-06
-1.50654e-05 5.69028e-06 4.07713e-06
-2.03157e-05 3.82259e-06 3.08312e-06
-3.41727e-05 5.34215e-06 5.4288e-06
-1.45181e-05 2.84061e-06 2.25281e-06
-1.97179e-05 4.75477e-06 3.11876e-06
-9.70599e-06 3.85679e-07 1.28709e-06
-7.3915e-06 2.32833e-06 6.63426e-07
-3.48569e-06 7.4753e-07 -4.08713e-07
-4.5283e-06 7.84406e-07 -7.96359e-08
-7.60208e-06 7.84279e-06 6.63499e-06
-2.02734e-05 2.91112e-06 2.51519e-06
-1.16306e-05 6.93898e-06 5.69188e-06
-8.3262e-06 4.28022e-06 2.9322e-06
-1.75589e-05 6.38377e-06 6.23319e-06
0.00136478 -0.000276765 0.000175458
-5.12059e-06 4.55477e-08 3.60642e-07
0.00113192 -0.000457492 -0.000179428
-6.9465e-06 1.43836e-06 1.35034e-06
-1.32874e-05 2.11367e-06 1.83359e-06
-2.54765e-05 5.59872e-06 3.14218e-06
-7.31894e-06 4.79391e-06 2.92209e-06
-9.39969e-06 4.25089e-06 5.82923e-07
-8.74701e-06 2.91722e-06 1.27648e-06
-2.834e-06 4.3613e-08 1.29042e-07
-5.01796e-06 6.79269e-06 3.8392e-06
-1.41851e-05 6.83763e-06 4.85025e-06
-2.22953e-05 5.50221e-06 4.41883e-06
-1.37097e-05 1.88255e-06 3.3093e-06
-3.58467e-06 1.49829e-06 -7.08229e-07
-1.19862e-05 6.19837e-06 4.36839e-06
-1.5594e-05 4.48629e-07 1.06247e-06
-6.93423e-06 3.4429e-06 1.71677e-06
-1.25912e-05 9.58998e-06 8.06333e-06
-1.47891e-05 2.68893e-06 2.09225e-06
-1.65951e-05 8.43885e-06 6.88286e-06
-1.0877e-05 2.17213e-06 1.82907e-06
-1.21265e-05 6.26682e-06 2.87926e-06
-8.89501e-06 7.18497e-07 7.3071e-07
0.00159677 0.000637125 0.00092282
-1.22028e-05 1.47337e-06 1.96781e-06
-8.28009e-06 2.12903e-06 1.85349e-06
-2.41962e-05 2.31595e-06 1.58853e-06
-1.16973e-05 1.65169e-06 1.39362e-06
-6.17364e-06 1.88965e-06 -9.25942e-08
-2.39941e-05 1.16044e-06 2.91979e-06
0.00205985 -0.00261611 0.000201468
0.00225846 0.0013125 -0.00178857
-7.05582e-06 2.40619e-06 1.48178e-06
-3.00701e-05 4.62713e-06 4.1775e-06
-4.02825e-06 2.38027e-06 -3.3183e-08
-1.35773e-05 6.9478e-06 5.65799e-06
-2.52165e-05 1.89098e-06 2.61908e-06
-1.59428e-05 2.21732e-06 3.48048e-06
-1.12105e-05 8.78336e-06 8.31961e-06
0.00133556 9.64803e-05 0.000299
-9.74578e-06 6.45935e-06 6.50339e-06
-1.179e-06 7.99788e-07 -2.18613e-07
0.00155854 -0.000451891 -0.000361204
-6.17418e-06 1.23813e-06 6.78168e-07
0.00218788 -0.00177316 5.04212e-05
-1.18147e-05 8.02477e-06 8.68693e-06
-5.18414e-06 5.14087e-06 5.15986e-06
0.00122264 -0.000587947 -0.000148866
-6.24832e-06 3.27074e-06 6.26557e-07
0.000829016 0.000641433 -1.68856e-05
-2.12466e-06 2.87072e-06 1.51726e-06
-6.0607e-06 2.49697e-06 1.40482e-06
-8.28201e-06 1.86866e-06 1.52613e-06
-1.23056e-05 7.74572e-06 5.82954e-06
-1.42672e-06 1.53079e-06 -1.14881e-07
0.000727632 -0.000357548 0.000184607
-2.22672e-05 1.67904e-06 1.70811e-06
-3.12418e-06 6.63222e-07 9.37419e-07
-2.97941e-06 2.53295e-06 1.38265e-06
0.000566495 -0.000291768 0.000472743
-1.15107e-05 4.99252e-06 5.71783e-06
-1.0773e-05 6.82701e-06 7.59683e-06
-2.70552e-06 2.74549e-06 1.44944e-06
-2.25466e-06 2.81801e-06 2.50206e-06
-2.19726e-06 3.45655e-07 -9.62533e-08
0.000541851 0.000736572 9.84554e-05
0.00106608 -0.000420084 -0.000147952
0.00135781 -0.000220299 -0.000343622
-8.90971e-06 5.25048e-06 5.91099e-06
-4.49861e-06 2.06786e-06 1.9205e-06
-9.70444e-06 1.40697e-06 1.08147e-06
-5.96327e-06 2.81446e-06 1.2769e-06
0.000968285 -0.000339145 0.000202809
0.000373985 0.000637791 -0.00052561
-1.98395e-06 2.18976e-08 1.49057e-07
-3.38567e-06 -4.6838e-08 1.22176e-07
-1.71475e-05 5.98275e-06 2.21833e-06
-3.73369e-06 7.29431e-08 1.83759e-07
-0.000113971 2.41037e-05 -0.000484031
-1.60116e-05 7.18145e-06 2.9742e-06
-3.41769e-06 1.15986e-06 1.26257e-06
-5.66946e-06 9.71721e-06 5.84056e-06
-2.53177e-06 1.02776e-07 8.40597e-08
-1.64288e-05 6.10123e-06 2.39924e-06
-5.05196e-06 2.48488e-06 1.30255e-06
0.000339059 -0.000450349 -0.000122833