# vtk DataFile Version 4.2
vtk output
ASCII
DATASET UNSTRUCTURED_GRID

POINTS 343 double
0.00161162 0.00421625 -2.06329e-05
0.00311695 0.00502401 0.00213524
0 0.00419538 0.00112517
0.00277461 0.00199113 0.00190658
0.00744691 0.0025112 0.00493915
0.00744374 0.00393214 0.00630363
0.010975 0.00492896 0.00486255
0.00896124 0.00497463 0.00358081
0.00984637 0.00342691 0.00678987
0.0071799 0.00509052 0.00490977
0.00602024 0.00120214 0.00992089
0.00760625 0.00218677 0.00780698
0.00603982 7.78044e-05 0.00824062
0.00289047 0.00204016 0.00799669
0.00616788 0.00261733 0.0099186
0.0100054 0.00658424 0.00682028
0.00922657 0.00630931 0.00506792
0.00324945 0.00222769 0.00510481
0 0.00143586 0.00417514
0.00228974 0.00349617 0.00400771
0.00985209 0.00333311 0.00304072
0.0111646 0.00237384 0.00492517
0 0.00270918 0.00154168
0.00599686 0.00151369 -7.19067e-05
0.00721832 0.00228962 0.00210884
0.00570481 0.00360518 0.00153279
0.00193518 2.43917e-05 0.00403554
0.00603624 7.83774e-05 0.00161346
0.00377285 0.0070023 -4.60875e-05
0.00277801 0.00808951 0.00190887
0.00587787 0.00632753 0.00157238
0.0115067 0.00814263 0.00784982
0.0114657 0.00497644 0.00787543
0.0120685 0.00624813 0.00579603
0.0143706 0.00901846 0.00401689
0.0108968 0.00778509 0.00482802
0.0123141 0.0101491 0.00401501
0.0114758 0.00812916 0.00187677
0.00508581 0.0031049 0.00689553
0.00638318 0.00374828 0.00824163
0.00560574 0.00167853 0.00589861
0.00718955 0.00776469 0.00758477
0.00285099 0.00804543 0.00795345
0.00405208 0.0100501 0.0070754
0.0056217 0.00847421 0.00588634
0 0.00695361 0.00262895
0.00236171 0.00627046 0.00405758
0 0.0040177 0.00850214
0.00332186 0.00502916 0.00761942
0.00205559 0.00420081 0.00997387
0.0103152 0.00725822 0.00986378
0.00879746 0.00609056 0.00830407
0.0029416 0.00798032 0.00470403
0.00436911 0.00700135 0.00641266
0.00227618 0.00610831 0.00589685
0.0143654 0.00598451 0.0081268
0 0.00718191 0.00711644
0.00227359 0.00580396 -2.88796e-05
0 0.00577432 0.00158701
0.0143669 0.00735534 0.00692993
0.0041201 0.00340359 0.00994547
0.0143638 0.00162286 0.00399958
0.0115903 0.00211094 0.00183959
0.0120849 0.00367426 0.00384972
0.00536714 0.00172279 0.0040605
0.00216025 0.0100277 0.00578713
0.00404829 5.24464e-05 0.00707706
0.00879299 0.00429262 0.00826261
0.0143667 0.0074495 0.00401971
0.0123055 0.000156671 0.00401649
0.0048127 0.00293605 -5.80509e-05
0.00388331 0.00159107 0.00994883
0.00406357 5.28818e-05 0.00278068
0.00689871 0.00528742 0.00746588
0.00454322 0.00320756 0.00310933
0 0.00849157 0.00581511
0.00700406 0.00376621 0.00369846
0.00220897 0.0027378 -2.79711e-05
0.00832998 0.0084274 0.00988953
0.00859192 0.0101045 0.00839434
0.00604506 0.0100743 0.00823945
0.00576562 0.00857479 0.00992322
0.0143682 0.00866063 0.00563198
0.00452029 0.00689442 0.0030925
0 0.00748929 0.00137438
0.00196829 0.00751499 -2.51576e-05
0 0.00287343 0.00335182
0 0.00580816 0.00831736
0 0.00429792 0.00253898
0.00364322 0.00434519 -4.44838e-05
0.00205513 0.00584565 0.00997378
0.00743905 0.00656937 0.00630577
0.00517436 0.00657791 0.00816707
0.00998572 0.002754 0.00986842
0.0115304 0.00210513 0.00788691
0.0100186 0.000128611 0.00295919
0.00865149 0.0017758 0.00350587
0.0143644 0.00305657 0.00317784
0 0.00140616 0.00256446
0.00915925 0.00834066 0.00630465
0.00836411 0.00154394 -9.94156e-05
0.00867754 0.00366301 0.00149792
0.00452695 0.0100559 0.00576665
0.0123049 0.0101493 0.00567693
0.00367999 0.00145406 -4.48109e-05
0.00858931 0.000111014 0.0013898
0.00902839 0.0083994 0.00350461
0.0122971 0.000156589 0.00567831
0.00891701 0.00178739 0.00625272
0.00201254 0.0025896 0.0099743
0.0102355 0.00730867 -0.000122401
0.00742579 0.00778309 0.00207658
0.00854383 0.00620106 0.00149773
0 0.00686719 0.00578184
0.0143668 0.00159383 0.00239352
0.00254422 0.00364301 0.00637546
0.014372 0.00865565 0.00245062
0.012092 0.00633886 0.00398347
0.00859702 0.0101052 0.001388
0.0100144 0.00012834 0.00680001
0.0143628 0.00162204 0.00563748
0.0120682 0.00372533 0.00590822
0.00215963 2.72083e-05 0.00578794
0 0.0013659 0.00748679
0.00196 2.47604e-05 0.00750451
0.0143657 0.00704201 0.00559817
0.00836309 0.00859547 -0.000100906
0 0.0075208 0.00859127
0.00195544 0.00751153 0.00997508
0.00607662 0.00828165 0.00355073
0.0123532 0.0101484 0.00735249
0.0143705 0.00879864 0.00733776
0.0082915 0.00169305 0.00989074
0.0104304 0.00431884 0.00986219
0 0.0057735 0.00666667
0.00196102 0.0100251 0.00750358
0 0.00863025 0.00752641
0.0123466 0.000158697 0.00235769
0.0143682 0.00712948 0.00245643
0.0121631 0.00649219 0.00201609
0.0122316 0.00597484 0.00983937
0.0107613 0.0015117 0.00985866
0.0123451 0.000158288 0.00735443
0.0143644 0.00155247 0.00729978
0 0.00143551 0.00581971
0.00858395 0.000110399 0.00839544
0.00604921 7.83075e-05 0.00332432
0.0114085 0.0048513 0.00189696
0.0143659 0.00447835 0.00236806
0.00607017 0.0100744 0.00658843
0.00406626 0.01005 0.00277924
0.00188032 2.39543e-05 0.00239428
0 0.00727418 0.00419576
0.0143644 0.00595039 0.00648088
0.0100268 0.0101219 0.00295718
0.010791 0.00876736 0.00985734
0 0.00574334 0.00336387
0 0.0043297 0.00416652
0.00986982 0.00590655 0.0098697
0.0143625 0.0032047 0.00673075
0.00606433 7.83869e-05 0.00659014
0.00355258 0.0100439 0.00856536
0.0107644 0.00150507 -0.000127152
0.00829353 0.00676967 0.0098902
0.0143694 0.00769314 0.00839903
0.0123762 0.00770353 0.00983686
0.00994195 0.00314971 -0.000117691
0.00483035 0.00580579 -5.84554e-05
0.0108283 0.00876331 -0.00012889
0.0108105 0.0101311 0.00125607
0.00831341 0.00697126 -9.98679e-05
0.010027 0.0064962 0.00290976
0.0108026 0.00013988 0.00125727
0.00413607 0.00505088 0.00994541
0.00621546 0.0059114 0.00991758
0.00621405 0.00424464 0.00991778
0.0108064 0.0101297 0.00847543
0.00354909 4.56903e-05 0.00856665
0.0143657 0.00592112 0.00318992
0 0.00302218 0.00691532
0.0143643 0.0041988 0.00831039
0.0122276 0.00417286 -0.000143525
0.0143684 0.00289286 0.00137577
0 0.00244495 0.00857025
0.00350611 0.00861402 0.00995371
0.010798 0.000139098 0.0084769
0.0121991 0.00277795 0.00983973
0.0127216 0.0043533 0.00983225
0.0081487 0.0100994 0.00572943
0.00745088 0.00767654 0.00493812
0.00810995 0.0100988 0.00411253
0.0100223 0.0101218 0.00679855
0.00433519 0.0069703 0.00994265
0.00598554 0.00440705 -7.1724e-05
0.00406694 5.24751e-05 0.00435357
0.00452275 5.86401e-05 0.00576885
0.01437 0.00437656 0.000960325
0.00522474 0.00840335 0.00152283
0.0143638 0.0045095 0.00398988
0.00958625 0.00589357 -0.000114621
0.0123548 0.0101493 0.0023562
0 0.00848692 0.00262374
0.00193553 0.0100251 0.00403471
0 0.00885053 0.00419359
0.00602718 0.00892572 -7.32625e-05
0.00604139 0.0100741 0.0016121
0.00718223 0.00488331 0.00229028
0.010381 0.00465304 -0.000123007
0.00810228 0.000104367 0.00411507
0.00814147 0.000104913 0.00573143
0.00188032 0.0100241 0.00239331
0.0123248 0.00260325 -0.000144972
0.0143629 0.00470153 0.007033
0.0102291 0.0101244 0.00487112
0.00824766 0.00346816 0.00989093
0.00352611 4.61383e-05 0.00131242
0.0143653 0.00262936 0.0083782
0.00343448 0.00483517 0.00495616
0.00838491 0.00443718 -9.97386e-05
0.0119636 0.00595652 -0.000140519
0.00787288 0.0100961 0.00711904
0.0143624 0.00450983 0.00565138
0.00776617 0.0100949 0.00267837
0.0102213 0.000130901 0.00487278
0.00406976 0.0100502 0.0043515
0 0.00452174 0.00721958
0.00649124 0.00730085 0.00991378
0.00786566 0.000101369 0.00712018
0.0051721 0.00514027 0.00353055
0.0061066 0.0100746 0.00492979
0.00610063 7.91142e-05 0.00493236
0.00526813 0.00528386 0.00610792
0 0.005744 0.00499998
0 0.00433013 0.00583333
0.00718627 0.0058356 -8.61106e-05
0.00716157 0.00642984 0.00346378
0.00775879 0.000100121 0.0026803
0.0143643 0.00592045 0.00482006
0.00529748 0.00647571 0.00477653
0.00824955 0.0051031 0.00989083
0.0143699 0.00595119 0.00142035
0 0.00666667 0
0.0123595 0.007672 -0.000145302
0.00478565 6.27968e-05 -5.76248e-05
0 0.01 0.00666667
0.00718368 0.0100869 0.00990497
0 0.00288419 0.00499914
0.0143726 0.00766293 0.0012079
0.014376 0.00684137 -0.000164
0 0.005 0.01
0.00718325 0.002977 -8.56596e-05
0 0.005 0
0.01437 0.000191143 0.00316034
0.0143776 0.0101637 0.00647996
0.00602911 0.00735049 -7.28892e-05
0.0143629 0.00306752 0.00481998
0.00718397 9.40674e-05 -8.60872e-05
0 0 0.00666667
0.00545193 0.00368638 0.00515733
0.00717733 9.23463e-05 0.00990613
0.0143681 0.000190596 0.00648216
0 0 0.005
0.0126332 0.0101514 0.00106998
0.0143774 0.00894846 0.00105421
0.0143683 0.00019056 0.0048207
0.0143748 0.00517948 -0.000162837
0.0017477 0.00124254 -2.21324e-05
0 0.00122008 0.00122008
0 0.00333333 0.01
0 0.00666667 0.01
0.0126329 0.00893233 -0.000148484
0.014379 0.0101632 0.00315783
0.00605465 0.010074 0.00332209
0.0143733 0.00684084 0.00980283
0 0.00333333 0
0 0.00122008 0.00877992
0.00174591 2.20747e-05 0.00875825
0.00174575 0.00124208 0.0099777
0.0126283 0.01015 0.00861383
0.00174672 0.00880202 0.00997759
0 0.00877992 0.00877992
0.0143736 0.00894712 0.00858737
0.00959158 0.0101164 -0.000116072
0.0143711 0.00140906 0.00105427
0.00174718 0.0100221 0.00875759
0.0126273 0.00893023 0.00983263
0.0143718 0.00517805 0.00980342
0 0 0.00333333
0.00958311 0.000124884 -0.000114103
0.0126244 0.000164085 0.0010704
0.00173538 2.2283e-05 0.00118979
0 0.00877992 0.00122008
0.00174699 0.00880265 -2.23972e-05
0.00173516 0.0100221 0.00118889
0.0143674 0.00140757 0.00858813
0.0126212 0.00138264 0.00983372
0.00957572 0.000123275 0.0098746
0.0126268 0.00138447 -0.000148007
0.0126201 0.000162901 0.00861541
0.0143746 0.00351685 -0.000162541
0.00478476 0.0100581 0.00993654
0.00352796 0.0100436 0.0013113
0.00958414 0.0101151 0.00987356
0.0143704 0.00351481 0.00980326
0 0.01 0.005
0.00376593 0.00853482 -4.62918e-05
0.0143775 0.0101634 0.00482025
0 0.01 0.00333333
0 0.00166667 0
0.0143734 0.000191012 0.0014992
0 0.00166667 0.01
0 0.00833333 0
0.0143804 0.00850424 -0.000164612
0.0143699 0.000190222 0.00814402
0.0143827 0.0101652 0.00149899
0.0143792 0.0101639 0.00814231
0.00238862 0.0100292 0.00996897
0 0.01 0.00833333
0.0119938 0.0101437 -0.000142413
0.0119849 0.000156871 -0.000141544
0.0119788 0.000155001 0.00984303
0.0119873 0.0101419 0.00984176
0 0 0.00833333
0.0143769 0.00850123 0.00980377
0.00238914 3.14897e-05 -2.97242e-05
0 0 0.00166667
0.00478901 0.010059 -5.87381e-05
0.0143713 0.00185364 0.00980451
0.0143758 0.0018557 -0.000163364
0.0023861 3.05533e-05 0.0099696
0.00238939 0.0100299 -3.02925e-05
0 0.01 0.00166667
0.0143825 0.0101656 0.00980517
0 0 0.01
0.0143874 0.0101661 -0.000165901
0.0143737 0.000189042 0.0098071
0 0.01 0.01
0.0143788 0.000190748 -0.000164945
0 0.01 0
0 0 0
0.00719013 0.0100877 -8.77632e-05
0.00478038 6.15464e-05 0.00993728
0 0.00833333 0.01

CELLS 343 686
1 0
1 1
1 2
1 3
1 4
1 5
1 6
1 7
1 8
1 9
1 10
1 11
1 12
1 13
1 14
1 15
1 16
1 17
1 18
1 19
1 20
1 21
1 22
1 23
1 24
1 25
1 26
1 27
1 28
1 29
1 30
1 31
1 32
1 33
1 34
1 35
1 36
1 37
1 38
1 39
1 40
1 41
1 42
1 43
1 44
1 45
1 46
1 47
1 48
1 49
1 50
1 51
1 52
1 53
1 54
1 55
1 56
1 57
1 58
1 59
1 60
1 61
1 62
1 63
1 64
1 65
1 66
1 67
1 68
1 69
1 70
1 71
1 72
1 73
1 74
1 75
1 76
1 77
1 78
1 79
1 80
1 81
1 82
1 83
1 84
1 85
1 86
1 87
1 88
1 89
1 90
1 91
1 92
1 93
1 94
1 95
1 96
1 97
1 98
1 99
1 100
1 101
1 102
1 103
1 104
1 105
1 106
1 107
1 108
1 109
1 110
1 111
1 112
1 113
1 114
1 115
1 116
1 117
1 118
1 119
1 120
1 121
1 122
1 123
1 124
1 125
1 126
1 127
1 128
1 129
1 130
1 131
1 132
1 133
1 134
1 135
1 136
1 137
1 138
1 139
1 140
1 141
1 142
1 143
1 144
1 145
1 146
1 147
1 148
1 149
1 150
1 151
1 152
1 153
1 154
1 155
1 156
1 157
1 158
1 159
1 160
1 161
1 162
1 163
1 164
1 165
1 166
1 167
1 168
1 169
1 170
1 171
1 172
1 173
1 174
1 175
1 176
1 177
1 178
1 179
1 180
1 181
1 182
1 183
1 184
1 185
1 186
1 187
1 188
1 189
1 190
1 191
1 192
1 193
1 194
1 195
1 196
1 197
1 198
1 199
1 200
1 201
1 202
1 203
1 204
1 205
1 206
1 207
1 208
1 209
1 210
1 211
1 212
1 213
1 214
1 215
1 216
1 217
1 218
1 219
1 220
1 221
1 222
1 223
1 224
1 225
1 226
1 227
1 228
1 229
1 230
1 231
1 232
1 233
1 234
1 235
1 236
1 237
1 238
1 239
1 240
1 241
1 242
1 243
1 244
1 245
1 246
1 247
1 248
1 249
1 250
1 251
1 252
1 253
1 254
1 255
1 256
1 257
1 258
1 259
1 260
1 261
1 262
1 263
1 264
1 265
1 266
1 267
1 268
1 269
1 270
1 271
1 272
1 273
1 274
1 275
1 276
1 277
1 278
1 279
1 280
1 281
1 282
1 283
1 284
1 285
1 286
1 287
1 288
1 289
1 290
1 291
1 292
1 293
1 294
1 295
1 296
1 297
1 298
1 299
1 300
1 301
1 302
1 303
1 304
1 305
1 306
1 307
1 308
1 309
1 310
1 311
1 312
1 313
1 314
1 315
1 316
1 317
1 318
1 319
1 320
1 321
1 322
1 323
1 324
1 325
1 326
1 327
1 328
1 329
1 330
1 331
1 332
1 333
1 334
1 335
1 336
1 337
1 338
1 339
1 340
1 341
1 342

CELL_TYPES 343
1
1
1
1
1
1
1
1
1
1
1
1
1
1
1
1
1
1
1
1
1
1
1
1
1
1
1
1
1
1
1
1
1
1
1
1
1
1
1
1
1
1
1
1
1
1
1
1
1
1
1
1
1
1
1
1
1
1
1
1
1
1
1
1
1
1
1
1
1
1
1
1
1
1
1
1
1
1
1
1
1
1
1
1
1
1
1
1
1
1
1
1
1
1
1
1
1
1
1
1
1
1
1
1
1
1
1
1
1
1
1
1
1
1
1
1
1
1
1
1
1
1
1
1
1
1
1
1
1
1
1
1
1
1
1
1
1
1
1
1
1
1
1
1
1
1
1
1
1
1
1
1
1
1
1
1
1
1
1
1
1
1
1
1
1
1
1
1
1
1
1
1
1
1
1
1
1
1
1
1
1
1
1
1
1
1
1
1
1
1
1
1
1
1
1
1
1
1
1
1
1
1
1
1
1
1
1
1
1
1
1
1
1
1
1
1
1
1
1
1
1
1
1
1
1
1
1
1
1
1
1
1
1
1
1
1
1
1
1
1
1
1
1
1
1
1
1
1
1
1
1
1
1
1
1
1
1
1
1
1
1
1
1
1
1
1
1
1
1
1
1
1
1
1
1
1
1
1
1
1
1
1
1
1
1
1
1
1
1
1
1
1
1
1
1
1
1
1
1
1
1
1
1
1
1
1
1
1
1
1
1
1
1
1
1
1
1
1
1
1
1
1
1
1
1
1
1
1
1
1
1
1
1
1
1
1
1
1
1
1
1
1
1

POINT_DATA 343
FIELD FieldData 8

NodeID_(#) 1 343 int
0
1
2
3
4
5
6
7
8
9
10
11
12
13
14
15
16
17
18
19
20
21
22
23
24
25
26
27
28
29
30
31
32
33
34
35
36
37
38
39
40
41
42
43
44
45
46
47
48
49
50
51
52
53
54
55
56
57
58
59
60
61
62
63
64
65
66
67
68
69
70
71
72
73
74
75
76
77
78
79
80
81
82
83
84
85
86
87
88
89
90
91
92
93
94
95
96
97
98
99
100
101
102
103
104
105
106
107
108
109
110
111
112
113
114
115
116
117
118
119
120
121
122
123
124
125
126
127
128
129
130
131
132
133
134
135
136
137
138
139
140
141
142
143
144
145
146
147
148
149
150
151
152
153
154
155
156
157
158
159
160
161
162
163
164
165
166
167
168
169
170
171
172
173
174
175
176
177
178
179
180
181
182
183
184
185
186
187
188
189
190
191
192
193
194
195
196
197
198
199
200
201
202
203
204
205
206
207
208
209
210
211
212
213
214
215
216
217
218
219
220
221
222
223
224
225
226
227
228
229
230
231
232
233
234
235
236
237
238
239
240
241
242
243
244
245
246
247
248
249
250
251
252
253
254
255
256
257
258
259
260
261
262
263
264
265
266
267
268
269
270
271
272
273
274
275
276
277
278
279
280
281
282
283
284
285
286
287
288
289
290
291
292
293
294
295
296
297
298
299
300
301
302
303
304
305
306
307
308
309
310
311
312
313
314
315
316
317
318
319
320
321
322
323
324
325
326
327
328
329
330
331
332
333
334
335
336
337
338
339
340
341
342

Component_(#) 1 343 int
0
0
0
0
0
0
0
0
0
0
0
0
0
0
0
0
0
0
0
0
0
0
0
0
0
0
0
0
0
0
0
0
0
0
0
0
0
0
0
0
0
0
0
0
0
0
0
0
0
0
0
0
0
0
0
0
0
0
0
0
0
0
0
0
0
0
0
0
0
0
0
0
0
0
0
0
0
0
0
0
0
0
0
0
0
0
0
0
0
0
0
0
0
0
0
0
0
0
0
0
0
0
0
0
0
0
0
0
0
0
0
0
0
0
0
0
0
0
0
0
0
0
0
0
0
0
0
0
0
0
0
0
0
0
0
0
0
0
0
0
0
0
0
0
0
0
0
0
0
0
0
0
0
0
0
0
0
0
0
0
0
0
0
0
0
0
0
0
0
0
0
0
0
0
0
0
0
0
0
0
0
0
0
0
0
0
0
0
0
0
0
0
0
0
0
0
0
0
0
0
0
0
0
0
0
0
0
0
0
0
0
0
0
0
0
0
0
0
0
0
0
0
0
0
0
0
0
0
0
0
0
0
0
0
0
0
0
0
0
0
0
0
0
0
0
0
0
0
0
0
0
0
0
0
0
0
0
0
0
0
0
0
0
0
0
0
0
0
0
0
0
0
0
0
0
0
0
0
0
0
0
0
0
0
0
0
0
0
0
0
0
0
0
0
0
0
0
0
0
0
0
0
0
0
0
0
0
0
0
0
0
0
0
0
0
0
0
0
0
0
0
0
0
0
0
0
0
0
0
0
0
0
0
0
0
0
0
0
0
0
0
0
0

NodalMass_(kg) 1 343 double
3.15563e-06
1.41304e-05
2.20912e-06
1.71484e-05
8.42e-06
9.09306e-06
1.01179e-05
7.52198e-06
6.81096e-06
5.58223e-06
3.10888e-06
1.07575e-05
4.87011e-06
1.64955e-05
3.0246e-06
8.05984e-06
6.703e-06
1.0877e-05
4.18978e-06
8.16106e-06
6.14143e-06
1.17902e-05
2.23114e-06
4.25176e-06
1.09915e-05
7.41467e-06
4.21871e-06
3.92484e-06
3.08766e-06
1.31268e-05
7.72627e-06
1.65404e-05
1.19037e-05
7.97564e-06
3.81683e-06
1.11001e-05
3.81317e-06
1.39137e-05
6.37414e-06
8.00975e-06
7.6712e-06
1.21135e-05
1.6399e-05
2.78633e-06
8.93599e-06
2.58087e-06
7.57362e-06
4.23241e-06
1.31286e-05
3.80168e-06
2.7746e-06
7.16776e-06
1.21307e-05
5.11765e-06
8.19728e-06
4.58094e-06
2.79503e-06
3.26126e-06
4.12443e-06
2.11915e-06
3.35177e-06
3.61669e-06
1.56838e-05
7.33679e-06
8.24695e-06
5.00369e-06
2.82625e-06
7.20276e-06
3.26815e-06
4.18751e-06
2.02785e-06
2.42152e-06
3.11835e-06
5.97459e-06
5.87101e-06
4.09374e-06
5.45463e-06
2.28825e-06
4.49759e-06
4.38192e-06
4.50892e-06
4.39234e-06
4.27273e-06
5.32031e-06
1.53201e-06
2.38869e-06
2.02885e-06
4.38798e-06
3.17972e-06
3.14298e-06
4.61567e-06
5.87645e-06
8.18088e-06
2.48341e-06
1.53815e-05
3.49683e-06
7.35227e-06
2.01314e-06
2.0408e-06
7.98183e-06
4.41293e-06
7.1389e-06
1.20123e-06
5.03343e-06
1.61257e-06
4.12601e-06
8.73748e-06
4.37849e-06
7.97173e-06
2.13557e-06
3.38137e-06
9.48623e-06
7.40262e-06
1.80226e-06
2.10222e-06
7.98889e-06
1.87983e-06
7.44814e-06
4.19782e-06
2.37156e-06
4.31705e-06
6.06441e-06
4.30905e-06
2.16843e-06
1.8986e-06
1.81294e-06
3.89762e-06
2.44299e-06
1.65628e-06
8.01374e-06
1.64513e-06
2.3931e-06
3.01363e-06
2.99431e-06
1.36541e-06
1.87293e-06
2.09622e-06
1.94762e-06
1.87618e-06
6.37913e-06
4.58628e-06
2.02767e-06
1.61999e-06
2.41284e-06
3.8865e-06
4.44973e-06
2.29839e-06
1.17349e-05
3.11811e-06
1.354e-06
3.45063e-06
1.81846e-06
2.9382e-06
1.37381e-06
2.41464e-06
2.10451e-06
2.63927e-06
2.14166e-06
1.7943e-06
3.19976e-06
1.36989e-06
2.43489e-06
2.08158e-06
1.3601e-06
2.17203e-06
1.89924e-06
3.16996e-06
2.6119e-06
2.37677e-06
1.60225e-06
1.90684e-06
5.49206e-06
1.87878e-06
3.14313e-06
2.97301e-06
1.18454e-06
1.89263e-06
2.04166e-06
2.73572e-06
2.42405e-06
3.23083e-06
3.19752e-06
3.2142e-06
1.94492e-06
1.61196e-06
1.86876e-06
3.22435e-06
2.1114e-06
2.96917e-06
6.15288e-06
2.3097e-06
2.39729e-06
2.38029e-06
2.64508e-06
1.66557e-06
1.82377e-06
2.06583e-06
5.73271e-06
2.08467e-06
2.18324e-06
2.43522e-06
3.1188e-06
3.17316e-06
2.05447e-06
1.9592e-06
3.05718e-06
6.44327e-06
2.08796e-06
2.72615e-06
2.15709e-06
1.86812e-06
2.0028e-06
2.10999e-06
2.88994e-06
2.3222e-06
2.3979e-06
1.97629e-06
6.4127e-06
2.16225e-06
3.29198e-06
2.10223e-06
2.66566e-06
1.94415e-06
2.91865e-06
2.58116e-06
2.11703e-06
2.09534e-06
1.91719e-06
7.06046e-06
2.25203e-06
2.06378e-06
6.28159e-06
2.12147e-06
2.90924e-06
2.12921e-06
6.4487e-06
1.41701e-06
2.0682e-06
6.58062e-06
2.52584e-06
2.39732e-06
7.42191e-07
2.22368e-06
7.06751e-07
7.00657e-07
8.93749e-07
2.53536e-06
2.26535e-06
1.33607e-06
7.84725e-07
2.32303e-06
6.06694e-07
6.68276e-07
6.84307e-07
2.51242e-06
2.31629e-06
7.8367e-07
6.80839e-07
6.22692e-06
6.7471e-07
6.65305e-07
7.01158e-07
1.8232e-06
1.90695e-06
6.86722e-07
7.04792e-07
1.86445e-06
2.28572e-06
6.8045e-07
7.16005e-07
1.82373e-06
6.01079e-07
2.02791e-06
7.4579e-07
5.74423e-07
1.80052e-06
1.454e-06
2.2702e-06
1.80636e-06
2.15356e-06
1.79089e-06
1.79456e-06
6.8231e-07
2.24737e-06
1.45239e-06
1.79556e-06
6.97875e-07
6.24265e-07
6.62717e-07
1.44627e-06
1.40138e-06
2.15258e-06
1.82851e-06
1.3994e-06
1.43932e-06
2.19226e-06
6.97732e-07
1.77726e-06
1.79162e-06
6.54258e-07
7.3397e-07
2.34895e-06
7.10392e-07
6.56982e-07
6.26314e-07
2.18926e-06
6.12493e-07
6.03901e-07
5.92831e-07
5.12031e-07
5.11667e-07
4.9467e-07
4.97016e-07
4.96269e-07
5.33079e-07
4.94191e-07
4.97855e-07
4.86862e-07
4.90626e-07
4.94649e-07
4.94954e-07
4.91922e-07
4.89615e-07
4.96354e-07
4.95189e-07
4.82188e-07
1.10854e-06
5.3299e-07
5.44763e-07
5.36655e-07
5.15417e-07
5.01772e-07
5.53774e-07
5.53774e-07
5.53774e-07
5.53774e-07
5.53774e-07
5.53774e-07
5.50785e-07
5.50785e-07
7.45291e-07
7.11668e-07
4.9897e-07

NodalForce_(N) 3 343 double
1.43051e-08 7.72639e-09 8.08655e-10
3.00181e-08 9.46443e-08 1.60063e-08
0.000279503 2.47389e-05 0.000583408
2.52462e-07 1.02955e-07 4.09023e-09
2.7953e-07 4.57604e-07 1.22721e-07
4.5855e-08 4.33699e-07 1.70597e-07
-9.14211e-09 1.0555e-06 4.08082e-07
5.2046e-08 5.28831e-07 1.7705e-07
6.79947e-08 5.96056e-07 2.42168e-07
-1.9298e-08 2.39396e-07 8.0318e-08
4.85684e-08 1.27914e-07 6.36826e-08
2.21951e-07 6.14373e-07 2.68132e-07
1.87042e-07 2.08275e-07 9.25177e-08
1.20129e-07 8.0464e-08 1.41353e-08
-1.08126e-11 1.09878e-07 6.36416e-08
-3.60778e-07 6.67095e-07 3.11553e-07
-1.70613e-07 4.81138e-07 1.90551e-07
1.34726e-07 8.93268e-08 2.74648e-08
0.000791569 0.000627629 0.000342262
4.32879e-08 2.46903e-08 1.26024e-08
2.42337e-07 5.54859e-07 1.75164e-07
5.15144e-07 1.3566e-06 4.84906e-07
0.00175732 -0.000373841 0.00036012
2.43355e-07 1.8825e-07 5.37839e-08
5.46187e-07 6.02215e-07 1.46994e-07
1.79306e-07 2.15484e-07 7.03763e-08
6.62754e-08 1.10686e-08 2.25173e-09
2.62646e-07 1.8285e-07 3.30313e-08
2.92139e-10 3.55056e-08 1.56674e-08
-1.30792e-07 6.54207e-08 1.13224e-08
-2.02758e-08 2.05847e-07 8.24187e-08
-1.39835e-06 1.78884e-06 8.91634e-07
-3.1478e-07 1.32275e-06 6.22252e-07
-2.65391e-07 9.73224e-07 4.18623e-07
-2.67915e-07 6.29064e-07 2.65958e-07
-5.87669e-07 1.10499e-06 4.60013e-07
-3.4546e-07 4.85555e-07 2.06554e-07
-5.09047e-07 1.56302e-06 6.11519e-07
5.66083e-08 1.44225e-07 5.51914e-08
-2.42679e-08 2.71287e-07 1.49919e-07
2.3639e-07 2.58175e-07 5.7322e-08
-6.40286e-07 5.21047e-07 2.78809e-07
-2.87528e-07 7.65014e-08 5.69334e-08
-1.22079e-07 4.15733e-08 2.02979e-08
-3.60303e-07 2.48038e-07 9.51346e-08
0.00104881 -1.24887e-05 -0.000349806
-2.925e-08 3.23482e-08 6.70275e-09
0.00039816 0.00058913 -0.000463121
-9.99543e-08 9.49935e-08 4.48167e-08
-1.9475e-08 1.23875e-08 6.3295e-09
-2.16338e-07 2.41419e-07 1.40519e-07
-3.04886e-07 4.52481e-07 2.51225e-07
-1.5177e-07 6.28316e-08 2.6434e-08
-9.07113e-08 6.54643e-08 3.4016e-08
-4.43229e-08 3.00741e-08 1.20358e-08
-2.17258e-07 7.51061e-07 3.53272e-07
0.000806351 -0.000248668 3.07593e-05
5.46001e-09 1.44363e-08 5.21299e-09
0.0019211 -0.000594922 0.000677053
-1.34444e-07 3.46044e-07 1.58626e-07
-3.52574e-08 4.72299e-08 3.13604e-08
2.4464e-07 6.39492e-07 2.36875e-07
1.16219e-06 1.96794e-06 6.20713e-07
2.20533e-07 9.3978e-07 3.46303e-07
2.91354e-07 2.66205e-07 4.03724e-08
-9.04032e-08 3.40429e-09 9.36573e-09
1.00779e-07 5.60896e-08 1.13972e-08
-9.76796e-08 4.73997e-07 2.47475e-07
-1.33666e-07 5.39203e-07 2.23696e-07
3.87676e-07 5.96513e-07 1.98253e-07
6.31618e-08 4.52922e-08 1.68694e-08
1.07188e-08 3.76218e-08 2.08063e-08
1.36528e-07 7.14465e-08 9.83972e-09
-1.03763e-07 2.24743e-07 1.1947e-07
9.17388e-08 9.93762e-08 2.28121e-08
0.00134004 -0.000303378 -0.000494002
1.11409e-07 2.38912e-07 6.66881e-08
2.56769e-08 5.03902e-09 3.6167e-09
-3.78533e-07 2.65816e-07 1.68835e-07
-4.42644e-07 2.83429e-07 1.53423e-07
-3.16243e-07 1.55824e-07 8.37237e-08
-2.65337e-07 1.34586e-07 9.5042e-08
-3.29445e-07 6.98041e-07 3.10308e-07
-5.49014e-08 8.15111e-08 2.02331e-08
0.00119772 0.000341086 0.000216431
-9.33735e-09 3.65727e-09 2.42691e-09
0.00121173 -0.000136078 -0.000282901
0.00184772 -0.000236505 -0.000496838
0.00105067 0.000788801 -0.00056633
4.08405e-08 3.53334e-08 1.42599e-08
-4.61407e-08 1.13006e-08 8.39981e-09
-1.84529e-07 2.65118e-07 1.17876e-07
-2.23012e-07 1.41294e-07 1.11723e-07
6.27341e-10 2.25898e-07 1.13643e-07
3.91344e-07 1.8515e-06 7.95813e-07
3.24259e-07 3.63301e-07 9.60906e-08
4.19964e-07 5.62328e-07 1.43375e-07
9.69107e-08 3.47922e-07 1.30374e-07
0.00178632 0.000801845 -5.44009e-05
-5.18057e-07 5.73183e-07 2.54601e-07
3.5457e-07 3.36075e-07 1.01053e-07
2.90895e-07 5.07365e-07 1.63824e-07
-5.26905e-08 2.33629e-08 7.48855e-09
-5.25177e-07 6.31961e-07 2.83195e-07
5.6107e-08 2.96954e-08 7.74873e-09
3.88016e-07 3.36334e-07 8.33546e-08
-4.04658e-07 6.27724e-07 2.26498e-07
3.43204e-07 6.17248e-07 2.23192e-07
3.06166e-07 6.23734e-07 2.19579e-07
1.90912e-09 3.28089e-09 2.83126e-09
-2.98398e-08 3.11877e-07 1.30117e-07
-2.39425e-07 4.69895e-07 1.68959e-07
-7.94494e-10 4.6234e-07 1.8009e-07
0.000677131 0.000383634 -0.000449973
1.71699e-07 3.74957e-07 1.3239e-07
1.68784e-08 3.24643e-08 1.00426e-08
-9.52132e-08 3.12149e-07 1.28403e-07
-1.49081e-07 9.22888e-07 3.62596e-07
-2.42528e-07 2.91846e-07 1.17508e-07
1.52389e-07 2.4028e-07 8.64817e-08
2.32526e-07 7.56877e-07 2.96851e-07
7.47024e-08 7.68876e-07 3.11701e-07
6.15839e-08 1.46874e-08 3.5308e-09
0.00146314 0.000188728 0.00039681
2.06911e-08 5.19307e-09 8.50507e-10
-8.44956e-08 2.9795e-07 1.30486e-07
-1.01927e-07 2.53648e-07 1.07989e-07
0.00166918 0.000460782 -0.000774556
-2.18041e-08 1.41667e-09 4.45629e-09
-2.60752e-07 2.68505e-07 7.56046e-08
-1.94336e-07 2.07919e-07 9.89721e-08
-2.2502e-07 3.87961e-07 1.84653e-07
4.56874e-08 2.10245e-07 1.03417e-07
-8.00623e-08 2.77184e-07 1.47945e-07
0.00114775 -0.000186304 0.00041601
-3.24585e-08 3.08589e-09 7.88471e-10
0.00146101 -0.000348537 0.000393604
2.07243e-07 2.83339e-07 8.6162e-08
-4.11601e-08 3.13575e-07 1.25445e-07
-4.55179e-08 8.10808e-07 3.05462e-07
-2.79123e-07 5.61561e-07 2.91109e-07
4.14289e-08 2.23365e-07 1.05186e-07
1.05757e-07 2.30196e-07 9.25448e-08
1.01007e-07 4.2048e-07 1.75352e-07
0.00105579 0.000556647 -0.000751735
2.19482e-07 3.43991e-07 1.4884e-07
1.45036e-07 1.07304e-07 1.62933e-08
2.78114e-07 1.34483e-06 4.766e-07
8.8976e-08 5.30076e-07 2.02296e-07
-8.90846e-08 4.86605e-08 2.05436e-08
-1.23759e-07 4.92646e-08 1.60243e-08
2.89161e-08 6.30843e-09 -1.96566e-09
0.00232261 0.000725398 -2.53805e-05
-4.58151e-08 2.26844e-07 1.00396e-07
-1.77765e-07 2.18685e-07 8.32371e-08
-2.19939e-07 2.04657e-07 1.15398e-07
0.00151512 0.000114906 -0.000677007
0.00092509 0.00083323 0.00178786
-9.55913e-08 1.43169e-07 8.27738e-08
5.07334e-08 5.45308e-07 2.31081e-07
6.67366e-08 6.09611e-08 1.59936e-08
-1.05322e-07 3.0773e-08 1.63402e-08
1.94698e-07 2.40395e-07 7.79483e-08
-8.0019e-08 7.64003e-08 5.05454e-08
-1.77879e-07 3.51699e-07 1.71637e-07
-1.7735e-07 2.33555e-07 1.24751e-07
2.00956e-07 3.00191e-07 1.03413e-07
2.09792e-08 4.55308e-08 2.19488e-08
-7.78717e-08 2.46186e-07 1.03858e-07
-1.02954e-07 1.68944e-07 6.80731e-08
-4.96501e-09 1.17028e-07 5.17375e-08
-7.9845e-08 4.76075e-07 1.72395e-07
2.02599e-07 2.24613e-07 6.32506e-08
-6.49002e-08 3.22718e-08 3.3628e-08
-1.03843e-07 8.17657e-08 6.97517e-08
-2.08238e-08 3.50512e-08 2.69494e-08
-2.24406e-07 1.90874e-07 9.66584e-08
5.03953e-08 3.3119e-08 1.0696e-08
-1.41885e-08 4.58891e-07 1.80993e-07
0.00182015 -0.000122331 0.000261935
-4.90698e-08 5.38798e-07 2.46853e-07
1.69158e-07 4.26128e-07 1.56463e-07
2.12653e-07 5.63016e-07 2.01756e-07
0.00140153 -0.000196751 -0.000311697
-5.9039e-08 1.80115e-08 1.62091e-08
9.9889e-08 2.15095e-07 9.23251e-08
-4.53081e-09 4.16755e-07 2.00991e-07
-6.45933e-08 2.84936e-07 1.40739e-07
-2.36213e-07 1.80682e-07 7.21333e-08
-2.3719e-07 2.95316e-07 1.06832e-07
-1.60346e-07 1.41944e-07 4.99697e-08
-2.43821e-07 2.11077e-07 9.65939e-08
-7.74533e-08 2.56915e-08 3.20665e-08
6.56973e-08 8.11973e-08 3.43752e-08
6.49849e-08 3.82831e-08 2.06596e-09
7.64469e-08 4.71798e-08 5.15825e-09
8.65539e-08 3.55509e-07 1.32197e-07
-1.24741e-07 1.52628e-07 5.3054e-08
2.95498e-08 3.5241e-07 1.38999e-07
3.48092e-08 1.80264e-07 7.13951e-08
-1.8884e-07 3.15835e-07 1.2927e-07
0.00152439 -0.0003126 -8.9732e-05
-4.23793e-08 2.75785e-09 4.96483e-09
0.00134128 -0.000627104 2.41987e-05
-4.6424e-08 7.30671e-08 3.0702e-08
-1.39029e-07 1.12876e-07 4.1796e-08
8.3963e-08 2.78041e-07 9.66986e-08
8.10629e-08 2.05496e-07 7.58702e-08
1.99644e-07 2.01817e-07 4.11954e-08
1.35226e-07 1.58095e-07 4.43238e-08
-2.23984e-08 1.73274e-09 1.3753e-09
1.63729e-07 2.78296e-07 9.70297e-08
-3.04197e-08 3.51819e-07 1.55517e-07
-2.57474e-07 2.66695e-07 1.10469e-07
-2.5322e-08 1.38457e-07 7.99729e-08
1.00278e-07 4.54393e-08 2.32252e-09
2.68867e-08 3.38553e-07 1.48992e-07
-6.06001e-09 5.74305e-08 1.69866e-08
7.9172e-08 1.40316e-07 5.33742e-08
6.19748e-08 4.15966e-07 1.63285e-07
-1.79767e-07 1.18093e-07 5.47411e-08
1.42058e-09 4.47956e-07 1.87454e-07
-1.16809e-07 1.12485e-07 4.05628e-08
2.30903e-07 3.08455e-07 9.49207e-08
-9.80383e-08 3.66654e-08 1.08481e-08
0.00164448 0.000294868 0.000730654
-1.13032e-07 6.83915e-08 5.35448e-08
1.02524e-07 1.30353e-07 4.62233e-08
7.40045e-09 1.46206e-07 3.80569e-08
-1.34703e-07 8.16147e-08 2.59388e-08
1.19131e-07 9.5619e-08 1.25904e-08
-4.60608e-08 1.29818e-07 5.02631e-08
0.00202339 -0.00142466 8.21802e-05
0.00190192 0.000716015 -0.00115752
2.67e-08 9.3037e-08 4.18783e-08
-8.70022e-08 2.71938e-07 8.45562e-08
1.12235e-07 9.93404e-08 2.11475e-08
-3.93967e-08 3.4449e-07 1.4338e-07
-8.87483e-08 1.37822e-07 4.44674e-08
-8.73873e-08 1.36543e-07 9.0178e-08
2.10816e-08 4.06387e-07 1.56585e-07
0.000825803 0.000733739 1.27351e-05
-2.75685e-08 2.89865e-07 1.20326e-07
4.27084e-08 2.4242e-08 4.21126e-09
0.000895649 -1.43989e-05 -0.000979371
-8.28992e-08 4.26801e-08 2.68279e-08
0.00206477 -0.00115354 0.000144441
-4.91608e-08 3.79762e-07 1.50756e-07
5.9019e-09 2.26184e-07 9.17538e-08
0.000786941 -0.00106962 0.000118684
1.18335e-07 1.20614e-07 4.24242e-08
0.000743614 0.00119265 -6.79215e-05
6.72686e-08 1.21107e-07 4.20962e-08
-7.63438e-08 1.11408e-07 5.17067e-08
-1.56087e-08 7.94146e-08 3.80109e-08
7.96811e-08 3.97524e-07 1.57231e-07
6.85932e-08 5.03842e-08 1.23332e-08
0.000662343 -0.00017634 0.000797146
6.36229e-08 1.51158e-07 4.25586e-08
2.33798e-08 4.21876e-08 2.10546e-08
4.87789e-08 1.19196e-07 4.66549e-08
0.000419686 -0.000437196 0.00102934
-1.23671e-07 2.48425e-07 1.02445e-07
-8.53532e-08 3.20042e-07 1.29884e-07
5.97737e-08 1.23569e-07 4.55656e-08
2.49543e-08 1.21863e-07 4.72391e-08
2.25704e-08 7.88302e-09 2.1734e-09
0.000996119 0.000536431 4.40893e-05
0.000670504 -0.000989217 0.000179913
0.000718224 -0.000984082 0.000101843
-6.56077e-08 2.49049e-07 1.04475e-07
-5.0653e-08 9.98814e-08 4.21383e-08
-1.07783e-07 7.38928e-08 2.16812e-08
-5.72238e-08 1.20675e-07 6.04066e-08
0.000764589 0.000483105 0.000138472
0.000413954 0.000366747 -0.000521493
1.30676e-08 5.52105e-09 4.06339e-09
7.50706e-09 6.29145e-09 1.50903e-09
-2.32191e-07 2.37013e-07 1.18238e-07
-3.01553e-08 4.46859e-09 5.34575e-09
0.000628768 -0.000204349 -0.00029964
-1.92591e-07 2.90059e-07 1.43101e-07
-3.52818e-08 5.93117e-08 2.59026e-08
2.16846e-07 4.05078e-07 1.38372e-07
-2.46009e-08 3.52919e-09 1.13345e-09
-2.09123e-07 2.31732e-07 1.21833e-07
-3.16525e-08 1.14727e-07 5.58565e-08
0.000376353 -0.000428394 0.00077243
7.2877e-08 6.5655e-08 1.88551e-08
1.69044e-07 2.1935e-07 6.74469e-08
2.19713e-08 6.39836e-09 -2.23865e-09
0.000504413 -0.000475235 0.00058432
-1.17079e-08 5.4285e-09 1.33313e-09
-1.509e-08 2.70509e-09 3.61569e-09