# vtk DataFile Version 4.2
vtk output
ASCII
DATASET UNSTRUCTURED_GRID

POINTS 343 double
0.00118669 0.00419718 -1.8457e-06
0.00229572 0.00498688 0.00217136
0 0.00419538 0.00112517
0.00204034 0.00195843 0.00193869
0.00550803 0.0024245 0.00502272
0.00550898 0.00384292 0.0063812
0.00816594 0.00479168 0.00498493
0.00665146 0.00486357 0.00368845
0.00731202 0.00330861 0.00688792
0.00531415 0.00500264 0.00499093
0.00445812 0.00113305 0.00997796
0.00563099 0.00209853 0.00788119
0.00446626 1.03647e-05 0.00830005
0.00212656 0.00200691 0.00802945
0.0045688 0.00254593 0.00997731
0.00744356 0.00645522 0.00691933
0.00685511 0.00619145 0.00517042
0.00239102 0.00219004 0.00514139
0 0.00143586 0.00417514
0.00168412 0.00346968 0.00403368
0.00731811 0.00321506 0.0031621
0.0083009 0.00224209 0.00504899
0 0.00270918 0.00154168
0.00444356 0.00144381 5.60894e-06
0.00534453 0.00220487 0.00219986
0.00422074 0.00353681 0.0016047
0.00142169 2.31255e-06 0.00405715
0.00446515 1.06049e-05 0.00168875
0.00279484 0.00695672 1.4377e-06
0.00204903 0.00805689 0.00194147
0.00435497 0.0062554 0.00164681
0.00858791 0.00798605 0.00795606
0.00853997 0.00483193 0.00798089
0.00900129 0.00608994 0.00592363
0.0107729 0.00881501 0.00418307
0.00812279 0.00763818 0.00495038
0.00921594 0.00996847 0.00415863
0.00856943 0.00797132 0.00202552
0.00375307 0.00304504 0.00695062
0.00472347 0.00367287 0.00830482
0.00413518 0.00161406 0.0059599
0.00533699 0.00767386 0.00765686
0.00210144 0.00801261 0.00798563
0.00300226 0.00999897 0.00712085
0.00416388 0.00840374 0.00594894
0 0.00695361 0.00262895
0.00173943 0.00624264 0.00408492
0 0.0040177 0.00850214
0.00244749 0.00499022 0.00765671
0.00151433 0.00417713 0.009997
0.00769269 0.00712258 0.00995239
0.00653754 0.00597988 0.00838634
0.0021683 0.00794632 0.00473798
0.00322577 0.00694992 0.00646226
0.00167636 0.00608175 0.00592282
0.0107507 0.00579591 0.00825879
0 0.00718191 0.00711644
0.00167705 0.0057766 -1.86576e-06
0 0.00577432 0.00158701
0.0107584 0.00715915 0.00707041
0.00304789 0.00335588 0.00998677
0.0107324 0.00145401 0.00416523
0.00862723 0.00197491 0.00198993
0.00900291 0.00352583 0.00399203
0.00395827 0.00166082 0.00412159
0.00159342 0.0100023 0.00581206
0.00298314 7.12459e-06 0.00712164
0.00652688 0.00418593 0.00834531
0.010758 0.00724943 0.00418527
0.00916219 2.12982e-05 0.00415934
0.00356311 0.00287874 3.30529e-06
0.00287049 0.00154675 0.00998765
0.00299456 7.5621e-06 0.002827
0.00510886 0.00520408 0.00753503
0.00334994 0.00315374 0.00316136
0 0.00849157 0.00581511
0.0051817 0.00368236 0.00378106
0.00162659 0.00271148 -1.90776e-06
0.00620693 0.008319 0.00996239
0.00640859 0.00998694 0.008474
0.00449417 0.00999548 0.00830004
0.00428472 0.00850298 0.00997735
0.010767 0.008459 0.00578366
0.00333882 0.00684037 0.00314499
0 0.00748929 0.00137438
0.00145253 0.00749212 -2.14866e-06
0 0.00287343 0.00335182
0 0.00580816 0.00831736
0 0.00429792 0.00253898
0.0026944 0.00430129 1.17452e-06
0.00151463 0.00582232 0.00999686
0.00551525 0.00647656 0.00638434
0.00382901 0.00651655 0.00821969
0.00742686 0.00263701 0.0099561
0.0085798 0.00197075 0.00799313
0.00743893 1.70357e-05 0.0030831
0.00641217 0.00167579 0.00361025
0.0107385 0.00288162 0.00335105
0 0.00140616 0.00256446
0.00681626 0.00821958 0.00639919
0.00621189 0.00144716 1.23714e-05
0.0064426 0.00355845 0.00161093
0.00335503 0.00999819 0.00581786
0.00920719 0.00996934 0.00580772
0.00271989 0.00141115 1.32573e-06
0.00637273 1.59265e-05 0.0015012
0.00672087 0.00827924 0.00361336
0.0091548 2.14175e-05 0.00580718
0.00660926 0.00168449 0.00634436
0.00148155 0.00256668 0.00999689
0.00763789 0.00717163 1.67819e-05
0.005517 0.00768738 0.0021709
0.0063511 0.00609231 0.00160927
0 0.00686719 0.00578184
0.0107389 0.00142527 0.00257184
0.00187196 0.00361343 0.0064044
0.0107755 0.00845296 0.00262922
0.00901957 0.00618025 0.00412477
0.00641586 0.00998507 0.00150108
0.00743434 1.80624e-05 0.00689808
0.0107307 0.00145304 0.0057873
0.00899037 0.00357799 0.00603359
0.00158793 2.52588e-06 0.00581217
0 0.0013659 0.00748679
0.0014413 2.55948e-06 0.00752688
0.0107536 0.00684558 0.00575101
0.00623627 0.00848366 1.33793e-05
0 0.0075208 0.00859127
0.00144156 0.00748998 0.00999677
0.00450346 0.00820453 0.00362264
0.00924619 0.00996866 0.00747005
0.0107724 0.00859649 0.00747496
0.00615286 0.00159757 0.00996457
0.00776496 0.00419156 0.00995294
0 0.0057735 0.00666667
0.00144626 0.0100019 0.00752668
0 0.00863025 0.00752641
0.00919739 2.21696e-05 0.00251336
0.0107608 0.00693033 0.00263464
0.00907885 0.00633017 0.00217248
0.00913053 0.00581659 0.00994279
0.00800822 0.00138691 0.00995141
0.0091939 2.23134e-05 0.00747101
0.0107344 0.00138446 0.00743654
0 0.00143551 0.00581971
0.00636392 1.59546e-05 0.00847476
0.00446809 1.10739e-05 0.00339594
0.0084991 0.00470694 0.00204477
0.0107467 0.00429697 0.00254836
0.00450961 0.00999403 0.00665325
0.00301416 0.00999825 0.00282714
0.00138166 2.58563e-06 0.00241535
0 0.00727418 0.00419576
0.0107477 0.0057627 0.00662502
0.00748922 0.00997908 0.00308161
0.00806082 0.00862105 0.00994948
0 0.00574334 0.00336387
0 0.0043297 0.00416652
0.00735025 0.00578253 0.00995511
0.0107355 0.00303044 0.00687169
0.00447858 1.11362e-05 0.00665327
0.00263266 0.00999891 0.0086033
0.00801491 0.00137994 1.80639e-05
0.00616988 0.00666558 0.00996345
0.0107655 0.00749665 0.00852911
0.0092509 0.00753654 0.00994088
0.00739796 0.00303103 1.62406e-05
0.00358027 0.0057471 3.58992e-06
0.00809484 0.00861287 1.86884e-05
0.0080869 0.00997425 0.00139845
0.00618949 0.00686383 1.29014e-05
0.00746364 0.00636532 0.00303421
0.00803534 1.94844e-05 0.00139903
0.00306129 0.00500338 0.00998665
0.00461043 0.00583796 0.00997523
0.00460553 0.00417196 0.00997597
0.00807778 0.00997648 0.00857241
0.00261668 6.47408e-06 0.00860425
0.0107498 0.00573375 0.00336343
0 0.00302218 0.00691532
0.0107426 0.00402063 0.00844133
0.00912856 0.00402085 2.38306e-05
0.0107466 0.00271784 0.00156261
0 0.00244495 0.00857025
0.00259854 0.00857212 0.00998864
0.00802872 1.94611e-05 0.00857349
0.00909487 0.0026335 0.00994314
0.00949639 0.00419601 0.00993969
0.0060665 0.00998768 0.00581615
0.00552854 0.00758149 0.00502161
0.00603861 0.00998704 0.00420755
0.00748194 0.00998067 0.00689763
0.00321205 0.00692024 0.00998496
0.00443833 0.00433431 6.90652e-06
0.0029962 6.33426e-06 0.00439936
0.00333289 7.88268e-06 0.00581863
0.0107553 0.00419521 0.00114985
0.00387574 0.0083374 0.00158862
0.0107412 0.00432766 0.0041549
0.00714045 0.00577099 1.56899e-05
0.00925103 0.00996722 0.00251167
0 0.00848692 0.00262374
0.00142767 0.0100023 0.00405713
0 0.00885053 0.00419359
0.00448566 0.00884725 7.04976e-06
0.00449405 0.0099933 0.00168882
0.00532124 0.00479543 0.0023805
0.00773317 0.00452314 1.78956e-05
0.00599835 1.42557e-05 0.00421011
0.00602654 1.45724e-05 0.00581738
0.00138778 0.0100019 0.00241509
0.00919618 0.00245569 2.35045e-05
0.0107416 0.00451977 0.0071718
0.00763888 0.00997854 0.00498546
0.00612277 0.0033705 0.00996536
0.00259957 7.22819e-06 0.00135452
0.0107397 0.00245752 0.0085086
0.00253072 0.00479453 0.00499547
0.00623323 0.00433467 1.32275e-05
0.008936 0.00579877 2.26038e-05
0.00586245 0.00998941 0.00719939
0.0107392 0.00432846 0.00580227
0.00578453 0.0099882 0.00277466
0.00758905 1.81819e-05 0.00498694
0.003015 0.00999885 0.00439904
0 0.00452174 0.00721958
0.0048221 0.00722102 0.00997328
0.0058228 1.43059e-05 0.00719818
0.00381806 0.00507792 0.00359062
0.00453483 0.00999295 0.0049993
0.00450321 1.17768e-05 0.00500049
0.00388938 0.00522102 0.00616667
0 0.005744 0.00499998
0 0.00433013 0.00583333
0.0053397 0.00574617 1.02904e-05
0.00530778 0.00634061 0.00354971
0.00574629 1.36484e-05 0.00277569
0.0107465 0.00573439 0.00497823
0.00391313 0.00641188 0.00483722
0.00612906 0.00500332 0.00996482
0.0107594 0.00576239 0.00160783
0 0.00666667 0
0.00924765 0.00750239 2.36082e-05
0.00354129 9.39291e-06 2.85523e-06
0 0.01 0.00666667
0.00535624 0.00999022 0.00997056
0 0.00288419 0.00499914
0.0107727 0.00746139 0.00139731
0.0107773 0.00664638 3.07887e-05
0 0.005 0.01
0.00533033 0.00289188 9.50186e-06
0 0.005 0
0.0107413 3.40619e-05 0.003333
0.0107927 0.00994923 0.00662358
0.00447996 0.00727471 7.20623e-06
0.0107347 0.00289422 0.00497776
0.0053298 1.48102e-05 7.45953e-06
0 0 0.00666667
0.00402208 0.00362172 0.00521866
0.00532098 1.30737e-05 0.0099719
0.0107381 3.38808e-05 0.00662439
0 0 0.005
0.00946923 0.00996398 0.00123741
0.0107875 0.00874257 0.00124405
0.0107377 3.37968e-05 0.00497773
0.0107692 0.00499361 3.26413e-05
0.00128563 0.00122169 -1.75903e-06
0 0.00122008 0.00122008
0 0.00333333 0.01
0 0.00666667 0.01
0.0094659 0.00875226 2.43762e-05
0.0107955 0.00994759 0.00333025
0.00449784 0.009993 0.00339467
0.0107706 0.00664873 0.00992298
0 0.00333333 0
0 0.00122008 0.00877992
0.0012845 2.43658e-06 0.00877736
0.00128471 0.00122203 0.00999727
0.00945871 0.00996642 0.00872559
0.00128793 0.00878199 0.00999689
0 0.00877992 0.00877992
0.0107784 0.00874414 0.00871595
0.00717207 0.00997877 1.36524e-05
0.0107464 0.00124169 0.00124288
0.00128945 0.0100011 0.00877762
0.00945121 0.00875383 0.00993843
0.0107608 0.00499424 0.0099238
0 0 0.00333333
0.00712509 1.96213e-05 1.31698e-05
0.00941454 2.43103e-05 0.00123745
0.00127608 2.68837e-06 0.00121001
0 0.00877992 0.00122008
0.00129003 0.00878201 -1.67225e-06
0.00128206 0.0100012 0.00120935
0.0107392 0.00124062 0.00871628
0.0094127 0.00123692 0.00993999
0.0071145 1.79697e-05 0.00995832
0.00942307 0.00123869 2.43649e-05
0.00940659 2.35404e-05 0.00872626
0.0107623 0.00333903 3.30142e-05
0.00355745 0.00999618 0.00998358
0.00261646 0.00999874 0.00135445
0.00716142 0.00998127 0.00995752
0.010753 0.00334084 0.0099243
0 0.01 0.005
0.0027942 0.00848848 1.45791e-06
0.0107921 0.00994788 0.00497998
0 0.01 0.00333333
0 0.00166667 0
0.0107481 3.29711e-05 0.00168453
0 0.00166667 0.01
0 0.00833333 0
0.0107937 0.00829921 3.24302e-05
0.0107419 3.2619e-05 0.00827443
0.0108032 0.00994931 0.00168524
0.0107959 0.00995061 0.00827376
0.00176842 0.00999893 0.00999468
0 0.01 0.00833333
0.00899047 0.00996551 2.02541e-05
0.00893623 2.49017e-05 2.02063e-05
0.0089259 2.25282e-05 0.00994471
0.00897665 0.00996888 0.00994326
0 0 0.00833333
0.0107837 0.00830141 0.00992371
0.00176048 5.10802e-06 -1.36553e-06
0 0 0.00166667
0.00356475 0.00999616 3.54363e-06
0.0107489 0.00168374 0.00992524
0.0107583 0.00168541 3.19608e-05
0.00175872 4.18637e-06 0.00999488
0.00177137 0.00999985 -8.49683e-07
0 0.01 0.00166667
0.0108009 0.00995325 0.00992585
0 0 0.01
0.0108134 0.00995021 3.02802e-05
0.0107474 3.05067e-05 0.00992749
0 0.01 0.01
0.0107576 3.29093e-05 2.9479e-05
0 0.01 0
0 0 0
0.00536468 0.00998825 8.83823e-06
0.00353608 7.82751e-06 0.00998322
0 0.00833333 0.01

CELLS 343 686
1 0
1 1
1 2
1 3
1 4
1 5
1 6
1 7
1 8
1 9
1 10
1 11
1 12
1 13
1 14
1 15
1 16
1 17
1 18
1 19
1 20
1 21
1 22
1 23
1 24
1 25
1 26
1 27
1 28
1 29
1 30
1 31
1 32
1 33
1 34
1 35
1 36
1 37
1 38
1 39
1 40
1 41
1 42
1 43
1 44
1 45
1 46
1 47
1 48
1 49
1 50
1 51
1 52
1 53
1 54
1 55
1 56
1 57
1 58
1 59
1 60
1 61
1 62
1 63
1 64
1 65
1 66
1 67
1 68
1 69
1 70
1 71
1 72
1 73
1 74
1 75
1 76
1 77
1 78
1 79
1 80
1 81
1 82
1 83
1 84
1 85
1 86
1 87
1 88
1 89
1 90
1 91
1 92
1 93
1 94
1 95
1 96
1 97
1 98
1 99
1 100
1 101
1 102
1 103
1 104
1 105
1 106
1 107
1 108
1 109
1 110
1 111
1 112
1 113
1 114
1 115
1 116
1 117
1 118
1 119
1 120
1 121
1 122
1 123
1 124
1 125
1 126
1 127
1 128
1 129
1 130
1 131
1 132
1 133
1 134
1 135
1 136
1 137
1 138
1 139
1 140
1 141
1 142
1 143
1 144
1 145
1 146
1 147
1 148
1 149
1 150
1 151
1 152
1 153
1 154
1 155
1 156
1 157
1 158
1 159
1 160
1 161
1 162
1 163
1 164
1 165
1 166
1 167
1 168
1 169
1 170
1 171
1 172
1 173
1 174
1 175
1 176
1 177
1 178
1 179
1 180
1 181
1 182
1 183
1 184
1 185
1 186
1 187
1 188
1 189
1 190
1 191
1 192
1 193
1 194
1 195
1 196
1 197
1 198
1 199
1 200
1 201
1 202
1 203
1 204
1 205
1 206
1 207
1 208
1 209
1 210
1 211
1 212
1 213
1 214
1 215
1 216
1 217
1 218
1 219
1 220
1 221
1 222
1 223
1 224
1 225
1 226
1 227
1 228
1 229
1 230
1 231
1 232
1 233
1 234
1 235
1 236
1 237
1 238
1 239
1 240
1 241
1 242
1 243
1 244
1 245
1 246
1 247
1 248
1 249
1 250
1 251
1 252
1 253
1 254
1 255
1 256
1 257
1 258
1 259
1 260
1 261
1 262
1 263
1 264
1 265
1 266
1 267
1 268
1 269
1 270
1 271
1 272
1 273
1 274
1 275
1 276
1 277
1 278
1 279
1 280
1 281
1 282
1 283
1 284
1 285
1 286
1 287
1 288
1 289
1 290
1 291
1 292
1 293
1 294
1 295
1 296
1 297
1 298
1 299
1 300
1 301
1 302
1 303
1 304
1 305
1 306
1 307
1 308
1 309
1 310
1 311
1 312
1 313
1 314
1 315
1 316
1 317
1 318
1 319
1 320
1 321
1 322
1 323
1 324
1 325
1 326
1 327
1 328
1 329
1 330
1 331
1 332
1 333
1 334
1 335
1 336
1 337
1 338
1 339
1 340
1 341
1 342

CELL_TYPES 343
1
1
1
1
1
1
1
1
1
1
1
1
1
1
1
1
1
1
1
1
1
1
1
1
1
1
1
1
1
1
1
1
1
1
1
1
1
1
1
1
1
1
1
1
1
1
1
1
1
1
1
1
1
1
1
1
1
1
1
1
1
1
1
1
1
1
1
1
1
1
1
1
1
1
1
1
1
1
1
1
1
1
1
1
1
1
1
1
1
1
1
1
1
1
1
1
1
1
1
1
1
1
1
1
1
1
1
1
1
1
1
1
1
1
1
1
1
1
1
1
1
1
1
1
1
1
1
1
1
1
1
1
1
1
1
1
1
1
1
1
1
1
1
1
1
1
1
1
1
1
1
1
1
1
1
1
1
1
1
1
1
1
1
1
1
1
1
1
1
1
1
1
1
1
1
1
1
1
1
1
1
1
1
1
1
1
1
1
1
1
1
1
1
1
1
1
1
1
1
1
1
1
1
1
1
1
1
1
1
1
1
1
1
1
1
1
1
1
1
1
1
1
1
1
1
1
1
1
1
1
1
1
1
1
1
1
1
1
1
1
1
1
1
1
1
1
1
1
1
1
1
1
1
1
1
1
1
1
1
1
1
1
1
1
1
1
1
1
1
1
1
1
1
1
1
1
1
1
1
1
1
1
1
1
1
1
1
1
1
1
1
1
1
1
1
1
1
1
1
1
1
1
1
1
1
1
1
1
1
1
1
1
1
1
1
1
1
1
1
1
1
1
1
1
1
1
1
1
1
1
1
1
1
1
1
1
1
1
1
1
1
1
1

POINT_DATA 343
FIELD FieldData 8

NodeID_(#) 1 343 int
0
1
2
3
4
5
6
7
8
9
10
11
12
13
14
15
16
17
18
19
20
21
22
23
24
25
26
27
28
29
30
31
32
33
34
35
36
37
38
39
40
41
42
43
44
45
46
47
48
49
50
51
52
53
54
55
56
57
58
59
60
61
62
63
64
65
66
67
68
69
70
71
72
73
74
75
76
77
78
79
80
81
82
83
84
85
86
87
88
89
90
91
92
93
94
95
96
97
98
99
100
101
102
103
104
105
106
107
108
109
110
111
112
113
114
115
116
117
118
119
120
121
122
123
124
125
126
127
128
129
130
131
132
133
134
135
136
137
138
139
140
141
142
143
144
145
146
147
148
149
150
151
152
153
154
155
156
157
158
159
160
161
162
163
164
165
166
167
168
169
170
171
172
173
174
175
176
177
178
179
180
181
182
183
184
185
186
187
188
189
190
191
192
193
194
195
196
197
198
199
200
201
202
203
204
205
206
207
208
209
210
211
212
213
214
215
216
217
218
219
220
221
222
223
224
225
226
227
228
229
230
231
232
233
234
235
236
237
238
239
240
241
242
243
244
245
246
247
248
249
250
251
252
253
254
255
256
257
258
259
260
261
262
263
264
265
266
267
268
269
270
271
272
273
274
275
276
277
278
279
280
281
282
283
284
285
286
287
288
289
290
291
292
293
294
295
296
297
298
299
300
301
302
303
304
305
306
307
308
309
310
311
312
313
314
315
316
317
318
319
320
321
322
323
324
325
326
327
328
329
330
331
332
333
334
335
336
337
338
339
340
341
342

Component_(#) 1 343 int
0
0
0
0
0
0
0
0
0
0
0
0
0
0
0
0
0
0
0
0
0
0
0
0
0
0
0
0
0
0
0
0
0
0
0
0
0
0
0
0
0
0
0
0
0
0
0
0
0
0
0
0
0
0
0
0
0
0
0
0
0
0
0
0
0
0
0
0
0
0
0
0
0
0
0
0
0
0
0
0
0
0
0
0
0
0
0
0
0
0
0
0
0
0
0
0
0
0
0
0
0
0
0
0
0
0
0
0
0
0
0
0
0
0
0
0
0
0
0
0
0
0
0
0
0
0
0
0
0
0
0
0
0
0
0
0
0
0
0
0
0
0
0
0
0
0
0
0
0
0
0
0
0
0
0
0
0
0
0
0
0
0
0
0
0
0
0
0
0
0
0
0
0
0
0
0
0
0
0
0
0
0
0
0
0
0
0
0
0
0
0
0
0
0
0
0
0
0
0
0
0
0
0
0
0
0
0
0
0
0
0
0
0
0
0
0
0
0
0
0
0
0
0
0
0
0
0
0
0
0
0
0
0
0
0
0
0
0
0
0
0
0
0
0
0
0
0
0
0
0
0
0
0
0
0
0
0
0
0
0
0
0
0
0
0
0
0
0
0
0
0
0
0
0
0
0
0
0
0
0
0
0
0
0
0
0
0
0
0
0
0
0
0
0
0
0
0
0
0
0
0
0
0
0
0
0
0
0
0
0
0
0
0
0
0
0
0
0
0
0
0
0
0
0
0
0
0
0
0
0
0
0
0
0
0
0
0
0
0
0
0
0
0

NodalMass_(kg) 1 343 double
3.15563e-06
1.41304e-05
2.20912e-06
1.71484e-05
8.42e-06
9.09306e-06
1.01179e-05
7.52198e-06
6.81096e-06
5.58223e-06
3.10888e-06
1.07575e-05
4.87011e-06
1.64955e-05
3.0246e-06
8.05984e-06
6.703e-06
1.0877e-05
4.18978e-06
8.16106e-06
6.14143e-06
1.17902e-05
2.23114e-06
4.25176e-06
1.09915e-05
7.41467e-06
4.21871e-06
3.92484e-06
3.08766e-06
1.31268e-05
7.72627e-06
1.65404e-05
1.19037e-05
7.97564e-06
3.81683e-06
1.11001e-05
3.81317e-06
1.39137e-05
6.37414e-06
8.00975e-06
7.6712e-06
1.21135e-05
1.6399e-05
2.78633e-06
8.93599e-06
2.58087e-06
7.57362e-06
4.23241e-06
1.31286e-05
3.80168e-06
2.7746e-06
7.16776e-06
1.21307e-05
5.11765e-06
8.19728e-06
4.58094e-06
2.79503e-06
3.26126e-06
4.12443e-06
2.11915e-06
3.35177e-06
3.61669e-06
1.56838e-05
7.33679e-06
8.24695e-06
5.00369e-06
2.82625e-06
7.20276e-06
3.26815e-06
4.18751e-06
2.02785e-06
2.42152e-06
3.11835e-06
5.97459e-06
5.87101e-06
4.09374e-06
5.45463e-06
2.28825e-06
4.49759e-06
4.38192e-06
4.50892e-06
4.39234e-06
4.27273e-06
5.32031e-06
1.53201e-06
2.38869e-06
2.02885e-06
4.38798e-06
3.17972e-06
3.14298e-06
4.61567e-06
5.87645e-06
8.18088e-06
2.48341e-06
1.53815e-05
3.49683e-06
7.35227e-06
2.01314e-06
2.0408e-06
7.98183e-06
4.41293e-06
7.1389e-06
1.20123e-06
5.03343e-06
1.61257e-06
4.12601e-06
8.73748e-06
4.37849e-06
7.97173e-06
2.13557e-06
3.38137e-06
9.48623e-06
7.40262e-06
1.80226e-06
2.10222e-06
7.98889e-06
1.87983e-06
7.44814e-06
4.19782e-06
2.37156e-06
4.31705e-06
6.06441e-06
4.30905e-06
2.16843e-06
1.8986e-06
1.81294e-06
3.89762e-06
2.44299e-06
1.65628e-06
8.01374e-06
1.64513e-06
2.3931e-06
3.01363e-06
2.99431e-06
1.36541e-06
1.87293e-06
2.09622e-06
1.94762e-06
1.87618e-06
6.37913e-06
4.58628e-06
2.02767e-06
1.61999e-06
2.41284e-06
3.8865e-06
4.44973e-06
2.29839e-06
1.17349e-05
3.11811e-06
1.354e-06
3.45063e-06
1.81846e-06
2.9382e-06
1.37381e-06
2.41464e-06
2.10451e-06
2.63927e-06
2.14166e-06
1.7943e-06
3.19976e-06
1.36989e-06
2.43489e-06
2.08158e-06
1.3601e-06
2.17203e-06
1.89924e-06
3.16996e-06
2.6119e-06
2.37677e-06
1.60225e-06
1.90684e-06
5.49206e-06
1.87878e-06
3.14313e-06
2.97301e-06
1.18454e-06
1.89263e-06
2.04166e-06
2.73572e-06
2.42405e-06
3.23083e-06
3.19752e-06
3.2142e-06
1.94492e-06
1.61196e-06
1.86876e-06
3.22435e-06
2.1114e-06
2.96917e-06
6.15288e-06
2.3097e-06
2.39729e-06
2.38029e-06
2.64508e-06
1.66557e-06
1.82377e-06
2.06583e-06
5.73271e-06
2.08467e-06
2.18324e-06
2.43522e-06
3.1188e-06
3.17316e-06
2.05447e-06
1.9592e-06
3.05718e-06
6.44327e-06
2.08796e-06
2.72615e-06
2.15709e-06
1.86812e-06
2.0028e-06
2.10999e-06
2.88994e-06
2.3222e-06
2.3979e-06
1.97629e-06
6.4127e-06
2.16225e-06
3.29198e-06
2.10223e-06
2.66566e-06
1.94415e-06
2.91865e-06
2.58116e-06
2.11703e-06
2.09534e-06
1.91719e-06
7.06046e-06
2.25203e-06
2.06378e-06
6.28159e-06
2.12147e-06
2.90924e-06
2.12921e-06
6.4487e-06
1.41701e-06
2.0682e-06
6.58062e-06
2.52584e-06
2.39732e-06
7.42191e-07
2.22368e-06
7.06751e-07
7.00657e-07
8.93749e-07
2.53536e-06
2.26535e-06
1.33607e-06
7.84725e-07
2.32303e-06
6.06694e-07
6.68276e-07
6.84307e-07
2.51242e-06
2.31629e-06
7.8367e-07
6.80839e-07
6.22692e-06
6.7471e-07
6.65305e-07
7.01158e-07
1.8232e-06
1.90695e-06
6.86722e-07
7.04792e-07
1.86445e-06
2.28572e-06
6.8045e-07
7.16005e-07
1.82373e-06
6.01079e-07
2.02791e-06
7.4579e-07
5.74423e-07
1.80052e-06
1.454e-06
2.2702e-06
1.80636e-06
2.15356e-06
1.79089e-06
1.79456e-06
6.8231e-07
2.24737e-06
1.45239e-06
1.79556e-06
6.97875e-07
6.24265e-07
6.62717e-07
1.44627e-06
1.40138e-06
2.15258e-06
1.82851e-06
1.3994e-06
1.43932e-06
2.19226e-06
6.97732e-07
1.77726e-06
1.79162e-06
6.54258e-07
7.3397e-07
2.34895e-06
7.10392e-07
6.56982e-07
6.26314e-07
2.18926e-06
6.12493e-07
6.03901e-07
5.92831e-07
5.12031e-07
5.11667e-07
4.9467e-07
4.97016e-07
4.96269e-07
5.33079e-07
4.94191e-07
4.97855e-07
4.86862e-07
4.90626e-07
4.94649e-07
4.94954e-07
4.91922e-07
4.89615e-07
4.96354e-07
4.95189e-07
4.82188e-07
1.10854e-06
5.3299e-07
5.44763e-07
5.36655e-07
5.15417e-07
5.01772e-07
5.53774e-07
5.53774e-07
5.53774e-07
5.53774e-07
5.53774e-07
5.53774e-07
5.50785e-07
5.50785e-07
7.45291e-07
7.11668e-07
4.9897e-07

NodalForce_(N) 3 343 double
1.57176e-05 1.34478e-06 -8.95921e-07
0.000132667 1.149e-05 -6.86915e-06
0.000460903 0.00049666 0.00109395
0.000163255 1.65249e-05 -1.10747e-05
0.000171663 2.16669e-05 -1.53753e-05
0.000179304 2.18832e-05 -4.7119e-06
0.000236954 5.00268e-05 -2.73216e-05
0.000152873 2.70257e-05 -2.77699e-05
0.000158773 2.37208e-05 1.10578e-06
0.000102301 1.24544e-05 -9.31172e-06
5.06731e-05 5.8741e-06 3.06217e-06
0.000217115 2.47892e-05 5.08137e-06
8.57664e-05 7.71259e-06 1.24754e-06
0.000171907 1.13238e-05 -1.09317e-05
4.87843e-05 5.89594e-06 2.93133e-06
0.000165669 3.5696e-05 1.16483e-06
0.000133004 2.55548e-05 -1.28212e-05
0.000121669 9.65872e-06 -8.66613e-06
-0.0012261 0.00125057 0.000531465
6.21553e-05 3.61218e-06 -3.12356e-06
0.000135504 2.3407e-05 -3.15393e-05
0.000294726 4.12433e-05 -3.26889e-05
0.000363555 -0.00197889 -0.00117965
5.95327e-05 1.14497e-05 -1.58994e-05
0.000197377 3.39208e-05 -4.2762e-05
0.000103818 1.65513e-05 -2.1412e-05
3.2064e-05 1.7166e-06 -2.26801e-06
6.47954e-05 8.33578e-06 -1.27987e-05
2.49628e-05 2.48276e-06 -4.80193e-06
0.000106707 2.43245e-06 -5.93567e-06
9.92298e-05 1.23579e-05 -2.13873e-05
0.000305065 0.000126932 2.85482e-05
0.000284006 6.0855e-05 2.26719e-05
0.000181662 5.58135e-05 -1.12559e-05
6.63348e-05 5.62749e-05 -2.28258e-05
0.000205655 7.3809e-05 -3.04409e-05
4.7533e-05 4.16803e-05 -1.82293e-05
0.000217175 0.000110696 -0.000110029
9.82156e-05 9.34741e-06 -5.08675e-06
0.000136023 1.50782e-05 2.20509e-06
0.000134199 1.33025e-05 -8.9871e-06
0.000191026 2.44149e-05 -3.79222e-07
0.000153132 3.04907e-06 -9.28204e-06
2.88783e-05 2.97712e-06 -1.97204e-06
0.000122555 1.20128e-05 -8.35683e-06
0.00201027 0.00119623 -0.000499306
5.5499e-05 2.44374e-06 -2.39453e-06
-7.31136e-05 0.00152416 2.9791e-05
0.000139462 5.09443e-06 -1.00342e-05
2.69127e-05 1.35094e-06 -1.15106e-06
5.01097e-05 1.46954e-05 7.74197e-06
0.000137566 2.20009e-05 7.32282e-06
0.000109545 2.24372e-06 -5.79107e-06
6.39407e-05 2.07195e-06 -4.94254e-06
5.97159e-05 1.76594e-06 -3.57294e-06
0.000111353 4.338e-05 1.37951e-05
0.000693991 0.000431681 0.000669226
2.07584e-05 1.85512e-06 -1.73305e-06
0.000857778 -0.000156287 -0.000448983
4.64294e-05 2.49272e-05 1.52296e-06
3.87359e-05 3.60809e-06 1.13923e-06
9.69825e-05 9.80982e-06 -2.30247e-05
0.000357023 5.43242e-05 -0.000135729
0.00018192 3.65165e-05 -3.7759e-05
0.000138701 1.56898e-05 -1.26709e-05
3.4899e-05 1.37628e-06 -2.03084e-06
4.01992e-05 2.34495e-06 -2.60156e-06
0.000149902 2.23467e-05 7.64965e-06
6.99825e-05 4.04053e-05 -1.94809e-05
0.000104797 8.64087e-06 -2.18115e-05
2.2532e-05 3.88188e-06 -5.29045e-06
2.84783e-05 2.61049e-06 8.98617e-07
4.3052e-05 3.69804e-06 -3.78958e-06
0.000104224 1.07391e-05 3.05701e-07
7.97755e-05 9.23839e-06 -6.05236e-06
0.00133446 0.00064727 0.000355986
9.99277e-05 1.38966e-05 -1.32243e-05
1.58095e-05 1.58549e-06 -1.21777e-06
6.60243e-05 1.5265e-05 9.15155e-06
5.69406e-05 1.91989e-05 4.5474e-06
5.679e-05 9.35232e-06 -1.29188e-07
5.56317e-05 6.31818e-06 3.84711e-06
8.16225e-05 6.02582e-05 -7.56804e-06
6.43026e-05 3.59454e-06 -3.70329e-06
0.000910329 -0.000618724 0.000878898
1.31596e-05 4.06657e-07 -7.30395e-07
0.000868844 -0.000575277 -0.000265531
0.00215647 -0.000665374 -0.000781944
-0.000126522 0.00103976 -0.000669272
2.70632e-05 4.0802e-06 -5.01104e-06
3.23845e-05 6.85841e-07 -1.402e-06
0.00010242 1.23692e-05 -3.85319e-06
0.000110077 5.19897e-06 -8.0009e-07
5.46178e-05 7.6726e-06 6.52561e-06
0.000390593 4.68749e-05 2.9347e-05
7.83753e-05 8.94457e-06 -1.97903e-05
0.00015775 2.28456e-05 -2.87564e-05
5.19886e-05 9.82247e-06 -1.61679e-05
0.000782645 0.000558699 0.000301556
0.000136484 3.35984e-05 -3.74373e-06
7.30298e-05 1.47023e-05 -2.81529e-05
0.000132883 2.52909e-05 -4.11719e-05
1.33459e-05 1.4895e-06 -9.88115e-07
6.84044e-05 5.40555e-05 -7.97482e-06
1.59165e-05 2.31079e-06 -2.88561e-06
7.83715e-05 1.08109e-05 -2.4572e-05
0.00013663 3.60395e-05 -3.17469e-05
0.000113154 8.1321e-06 -7.80806e-06
0.000182071 2.2265e-05 -4.71387e-06
1.55279e-05 9.20665e-07 -6.17748e-07
4.63516e-05 2.09804e-05 -2.78742e-05
0.000131148 2.26598e-05 -3.42606e-05
0.000119857 2.68994e-05 -4.05785e-05
-0.000437774 0.000214221 -0.00151724
5.31401e-05 5.5197e-06 -2.06309e-05
6.88906e-05 3.07643e-06 -4.69621e-06
3.1556e-05 2.73402e-05 -1.71321e-05
0.000164125 5.47553e-05 -3.62878e-05
4.11442e-05 1.75995e-05 -2.44435e-05
5.66948e-05 4.83186e-06 4.59135e-07
0.000119068 1.16048e-05 -8.16905e-06
0.000154944 2.82554e-05 -6.87401e-06
3.58918e-05 1.74885e-06 -2.23779e-06
0.00117118 0.000366703 0.000626132
1.44277e-05 6.17122e-07 -9.47145e-07
4.12047e-05 2.12843e-05 -3.2727e-06
4.05645e-05 1.18936e-05 -2.48929e-05
0.000594205 0.000486304 -0.000762914
1.11089e-05 1.33856e-07 -4.33165e-07
0.000110153 1.22509e-05 -1.21281e-05
2.20793e-05 1.82252e-05 1.77832e-06
4.38363e-05 3.36659e-05 4.19221e-06
6.01953e-05 7.37544e-06 6.16102e-06
6.56111e-05 1.18292e-05 8.08641e-06
0.000150826 -0.00117007 0.00094032
1.22932e-05 5.13035e-07 -8.30086e-07
0.000433099 8.77095e-05 8.43228e-05
4.53858e-05 3.66976e-06 -1.60436e-05
3.89332e-05 2.27255e-05 -1.7431e-05
0.000126271 5.21296e-05 -5.50422e-05
0.000100474 3.0676e-05 1.63993e-05
4.72855e-05 5.51017e-06 6.20264e-06
4.15731e-05 2.43679e-06 1.59105e-06
6.57215e-05 5.70122e-06 3.49995e-06
7.41982e-05 0.000941202 -0.00122129
9.63607e-05 8.84872e-06 6.05784e-06
4.15014e-05 3.99834e-06 -5.63913e-06
0.000249608 6.36051e-05 -9.83092e-05
7.58482e-05 2.1592e-05 -3.11538e-05
1.71219e-05 3.18e-06 -7.76595e-07
3.36574e-05 3.1324e-06 -2.9316e-06
1.30946e-05 6.82778e-07 -6.8899e-07
0.0012131 0.000785166 0.000268839
3.3622e-05 1.24741e-05 1.42644e-08
2.77014e-05 1.59917e-05 -1.27296e-05
3.30465e-05 1.47202e-05 6.3686e-06
0.00155866 -0.000831284 -0.000459539
-0.00208058 0.00214631 0.0038406
3.51893e-05 7.10696e-06 4.40396e-06
8.74938e-05 1.48832e-05 9.74738e-07
2.53972e-05 2.04739e-06 -9.26701e-07
2.31849e-05 2.46702e-06 -6.98319e-07
3.94864e-05 6.95861e-06 -1.92852e-05
2.30327e-05 3.61874e-06 2.5513e-06
4.46956e-05 2.55899e-05 7.66851e-06
3.53102e-05 1.63332e-05 7.01017e-06
5.68956e-05 1.18237e-05 -2.61682e-05
2.55228e-05 3.75228e-06 -6.55788e-06
2.64736e-05 1.65984e-05 -2.13493e-05
1.53481e-05 1.33416e-05 -1.28172e-05
2.45409e-05 7.20491e-06 -1.16926e-05
0.000103536 2.81686e-05 -2.92386e-05
3.88775e-05 4.04169e-06 -1.57565e-05
3.48483e-05 2.05128e-06 8.37876e-07
4.37935e-05 3.73102e-06 2.80047e-06
1.83729e-05 2.05039e-06 1.19951e-06
2.48837e-05 1.57182e-05 3.61168e-06
2.53915e-05 1.33234e-06 -5.72661e-07
6.40623e-05 2.43193e-05 -2.23419e-05
0.00131834 -0.000885477 -5.30011e-05
8.49985e-05 1.82245e-05 1.12594e-05
6.20555e-05 1.67281e-05 -3.53829e-05
7.74768e-05 1.59464e-05 -3.88843e-05
0.00084455 -0.000332516 0.000283611
1.50485e-05 1.01141e-06 3.59863e-07
4.47676e-05 3.09621e-06 3.92818e-06
7.89891e-05 1.19139e-05 1.20966e-05
5.102e-05 1.10959e-05 8.11369e-06
4.2142e-05 1.20282e-05 -2.6068e-06
0.000100105 1.45761e-05 -8.89046e-06
3.11061e-05 9.24896e-06 -5.98019e-06
3.25413e-05 1.59446e-05 3.93327e-07
2.64507e-05 6.81232e-07 9.25658e-07
3.21209e-05 6.29775e-06 -1.01926e-05
2.35141e-05 1.96295e-06 -2.23715e-06
2.83895e-05 1.96831e-06 -2.18109e-06
4.6559e-05 1.39068e-05 -2.60772e-05
6.2114e-05 5.92978e-06 -1.30158e-05
5.30769e-05 1.54656e-05 -1.19988e-05
3.36596e-05 1.05342e-05 -1.66674e-05
2.6556e-05 2.72077e-05 -1.88271e-05
0.00123915 -0.000847301 8.26857e-05
1.97646e-05 5.5025e-07 -1.0475e-06
0.000547461 -2.01289e-05 0.000113049
1.83866e-05 2.43574e-06 -7.76649e-06
3.18542e-05 5.54734e-06 -9.59132e-06
0.000107297 1.67638e-05 -2.3256e-05
3.67617e-05 1.0132e-05 -1.83909e-05
5.93104e-05 5.77898e-06 -8.81306e-06
4.81171e-05 4.26922e-06 -2.54885e-06
1.10773e-05 4.71522e-07 -4.27118e-07
4.07973e-05 7.98278e-06 -2.22672e-05
5.52158e-05 1.48312e-05 2.46422e-06
3.70613e-05 2.04921e-05 -6.8383e-06
4.5037e-05 6.55843e-06 4.12678e-06
2.80342e-05 2.10326e-06 -3.23565e-06
5.28609e-05 7.46503e-06 7.13175e-06
6.77205e-05 3.79631e-06 -4.3648e-06
3.35702e-05 7.70715e-06 -1.40273e-05
5.73616e-05 2.53189e-05 -3.4126e-05
2.88111e-05 7.68189e-06 -6.51926e-07
7.01304e-05 1.90382e-05 -5.1536e-06
2.31255e-05 6.69292e-06 -6.65886e-06
6.97239e-05 6.31324e-06 -8.46881e-06
2.61762e-05 2.38538e-06 -2.19102e-06
0.000611629 0.000656225 0.00132427
2.97945e-05 2.64244e-06 2.2687e-06
4.11407e-05 3.67421e-06 -7.83467e-08
0.000101324 9.36148e-06 -8.34418e-06
2.84103e-05 5.42787e-06 -2.91507e-06
3.90729e-05 2.95025e-06 -3.62949e-06
9.48273e-05 6.3336e-06 -6.40993e-06
0.00124617 -0.00378083 0.000442038
0.000735937 0.00163732 -0.0023024
2.73829e-05 5.85666e-06 -1.06909e-05
0.00010593 1.37842e-05 -1.59745e-05
2.81434e-05 3.26324e-06 -5.7533e-06
5.02758e-05 1.84746e-05 -7.43139e-06
9.52962e-05 6.07616e-06 -7.15898e-06
4.65279e-05 6.67005e-06 4.30936e-06
5.13702e-05 2.29117e-05 -2.83454e-05
0.00212444 -0.000216885 0.00112654
3.21052e-05 2.11939e-05 -2.36835e-05
9.03644e-06 1.26929e-06 -2.02954e-06
0.00196115 -0.00105213 -4.64956e-05
1.09313e-05 2.95723e-06 1.13214e-06
0.00160613 -0.00199488 -1.62734e-05
4.11877e-05 2.98727e-05 -2.68706e-05
2.38355e-05 1.57418e-05 -1.73624e-05
0.00108556 -0.000551455 -0.000172477
3.42933e-05 7.16293e-06 -1.18262e-05
0.000880671 0.000688925 0.000308304
1.69589e-05 6.90291e-07 -5.529e-06
9.81264e-06 1.07664e-05 1.66057e-07
2.61062e-05 4.00421e-06 -9.58433e-06
6.23598e-05 1.01753e-05 -9.12349e-06
1.23097e-05 1.8632e-06 -3.96682e-06
0.000677277 -0.000156677 4.57809e-05
0.000101725 9.98791e-06 -7.54943e-06
1.24492e-05 1.14401e-06 9.52559e-07
1.79007e-05 6.44505e-07 -8.39286e-08
0.000510163 -4.55135e-05 0.000384446
1.6937e-05 2.19423e-05 -1.83062e-05
2.72961e-05 2.86597e-05 -2.30447e-05
1.82544e-05 8.13927e-07 -2.73646e-06
1.41229e-05 5.83777e-06 -9.46875e-06
1.10442e-05 1.22437e-06 -7.09109e-07
-0.00111604 0.000760402 -0.000505808
0.000767677 -0.00020939 -0.000146993
0.00127546 0.000136782 -0.000423846
2.04127e-05 2.02779e-05 -1.99333e-05
7.74057e-06 9.69875e-06 -4.61456e-06
2.40993e-05 4.42621e-06 -3.61852e-06
1.59147e-05 7.97432e-06 3.69758e-06
0.00132517 -0.00109034 0.000756151
-0.000519326 0.000311074 -0.000542398
9.77657e-06 4.55179e-07 -3.31239e-07
1.48798e-05 9.35329e-07 -5.47114e-07
2.35239e-05 2.14521e-05 5.07025e-06
1.29455e-05 4.62569e-07 -4.24049e-07
-0.00118856 0.000634908 -0.000663988
3.11008e-05 2.58528e-05 6.55606e-06
5.34758e-06 4.00747e-06 -5.18515e-06
5.33784e-05 4.88185e-06 -2.80582e-05
8.43918e-06 4.89378e-07 -5.28342e-07
2.78537e-05 1.93021e-05 6.98281e-06
1.67663e-05 5.61629e-06 3.33466e-06
0.000338544 -0.000242564 -0.000635378
1.1729e-05 1.59001e-06 -5.13654e-06
3.15313e-05 2.28049e-06 -1.51821e-05