# vtk DataFile Version 4.2
vtk output
ASCII
DATASET UNSTRUCTURED_GRID

POINTS 343 double
0.00161161 0.00421625 -2.06336e-05
0.00311695 0.00502401 0.00213524
0 0.00419538 0.00112517
0.00277459 0.00199113 0.00190658
0.00744689 0.00251116 0.00493912
0.00744375 0.00393211 0.0063036
0.010975 0.00492888 0.00486248
0.00896122 0.00497458 0.00358077
0.00984638 0.00342684 0.00678981
0.0071799 0.00509049 0.00490975
0.00602025 0.00120211 0.00992086
0.00760625 0.00218673 0.00780694
0.00603981 7.77757e-05 0.00824059
0.00289047 0.00204015 0.00799669
0.0061679 0.00261731 0.00991856
0.0100054 0.00658418 0.00682022
0.00922659 0.00630925 0.00506787
0.00324944 0.00222769 0.00510481
0 0.00143586 0.00417514
0.00228974 0.00349617 0.00400771
0.00985205 0.00333305 0.00304067
0.0111646 0.00237376 0.0049251
0 0.00270918 0.00154168
0.0059968 0.00151366 -7.19308e-05
0.00721827 0.00228959 0.00210881
0.00570478 0.00360516 0.00153277
0.00193517 2.43898e-05 0.00403554
0.00603618 7.83444e-05 0.00161345
0.00377284 0.00700229 -4.60971e-05
0.00277802 0.0080895 0.00190887
0.00587786 0.00632751 0.00157236
0.0115068 0.00814255 0.00784973
0.0114658 0.00497636 0.00787534
0.0120685 0.00624804 0.00579594
0.0143706 0.00901834 0.00401678
0.0108968 0.00778502 0.00482795
0.0123141 0.010149 0.00401493
0.0114758 0.00812907 0.0018767
0.00508581 0.00310488 0.00689552
0.0063832 0.00374825 0.00824159
0.00560573 0.00167851 0.0058986
0.0071896 0.00776466 0.00758473
0.00285101 0.00804543 0.00795345
0.00405212 0.0100501 0.00707539
0.00562174 0.00847419 0.00588632
0 0.00695361 0.00262895
0.00236171 0.00627046 0.00405758
0 0.0040177 0.00850214
0.00332187 0.00502915 0.00761942
0.0020556 0.00420081 0.00997387
0.0103153 0.00725816 0.00986369
0.00879751 0.00609051 0.00830401
0.00294161 0.00798032 0.00470403
0.00436912 0.00700134 0.00641265
0.00227618 0.00610831 0.00589685
0.0143655 0.00598439 0.00812667
0 0.00718191 0.00711644
0.00227359 0.00580396 -2.88824e-05
0 0.00577432 0.00158701
0.0143669 0.00735522 0.0069298
0.00412012 0.00340358 0.00994545
0.0143638 0.00162273 0.00399947
0.0115902 0.00211085 0.00183952
0.0120849 0.00367416 0.00384963
0.00536711 0.00172277 0.00406049
0.00216027 0.0100277 0.00578713
0.00404827 5.24334e-05 0.00707705
0.00879302 0.00429258 0.00826255
0.0143667 0.00744938 0.00401959
0.0123054 0.00015657 0.00401641
0.00481266 0.00293603 -5.80668e-05
0.00388333 0.00159106 0.00994881
0.00406354 5.28658e-05 0.00278067
0.00689873 0.00528739 0.00746584
0.00454321 0.00320755 0.00310932
0 0.00849157 0.00581511
0.00700404 0.00376618 0.00369844
0.00220896 0.0027378 -2.79736e-05
0.00833007 0.00842736 0.00988947
0.00859201 0.0101044 0.00839428
0.00604513 0.0100742 0.00823942
0.00576569 0.00857477 0.00992318
0.0143683 0.00866051 0.00563186
0.00452029 0.00689441 0.00309249
0 0.00748929 0.00137438
0.00196829 0.00751499 -2.51593e-05
0 0.00287343 0.00335182
0 0.00580816 0.00831736
0 0.00429792 0.00253898
0.0036432 0.00434518 -4.44926e-05
0.00205515 0.00584565 0.00997377
0.00743908 0.00656934 0.00630574
0.00517439 0.00657789 0.00816705
0.00998576 0.00275394 0.00986834
0.0115304 0.00210505 0.00788683
0.0100185 0.000128538 0.00295914
0.00865144 0.00177574 0.00350584
0.0143643 0.00305645 0.00317772
0 0.00140616 0.00256446
0.00915931 0.00834061 0.00630459
0.00836402 0.00154389 -9.94593e-05
0.00867749 0.00366295 0.00149788
0.00452699 0.0100559 0.00576664
0.012305 0.0101492 0.00567684
0.00367995 0.00145405 -4.48204e-05
0.00858922 0.000110956 0.00138976
0.00902841 0.00839935 0.00350457
0.012297 0.000156489 0.00567822
0.00891699 0.00178734 0.00625267
0.00201254 0.0025896 0.0099743
0.0102354 0.0073086 -0.00012247
0.0074258 0.00778305 0.00207655
0.00854381 0.00620101 0.00149768
0 0.00686719 0.00578184
0.0143667 0.00159371 0.00239341
0.00254422 0.00364301 0.00637546
0.0143721 0.00865553 0.0024505
0.012092 0.00633877 0.00398339
0.00859704 0.0101051 0.00138796
0.0100144 0.000128269 0.00679995
0.0143628 0.00162192 0.00563736
0.0120682 0.00372524 0.00590813
0.00215962 2.72061e-05 0.00578794
0 0.0013659 0.00748679
0.00196 2.4759e-05 0.00750451
0.0143658 0.00704189 0.00559804
0.00836308 0.00859542 -0.000100956
0 0.0075208 0.00859127
0.00195546 0.00751153 0.00997507
0.00607664 0.00828163 0.00355072
0.0123533 0.0101483 0.00735239
0.0143706 0.00879852 0.00733763
0.00829152 0.001693 0.00989068
0.0104304 0.00431878 0.00986211
0 0.0057735 0.00666667
0.00196104 0.0100251 0.00750358
0 0.00863025 0.00752641
0.0123465 0.000158594 0.00235761
0.0143682 0.00712935 0.00245631
0.0121631 0.0064921 0.002016
0.0122317 0.00597475 0.00983927
0.0107613 0.00151163 0.00985857
0.0123451 0.000158188 0.00735434
0.0143644 0.00155234 0.00729965
0 0.00143551 0.00581971
0.00858394 0.000110345 0.00839538
0.00604916 7.82749e-05 0.00332431
0.0114084 0.00485122 0.00189689
0.0143658 0.00447823 0.00236795
0.00607023 0.0100744 0.0065884
0.00406629 0.01005 0.00277923
0.00188031 2.39516e-05 0.00239428
0 0.00727418 0.00419576
0.0143645 0.00595027 0.00648076
0.0100268 0.0101219 0.00295712
0.0107911 0.00876729 0.00985724
0 0.00574334 0.00336387
0 0.0043297 0.00416652
0.0098699 0.00590649 0.00986962
0.0143625 0.00320458 0.00673063
0.00606431 7.83567e-05 0.00659012
0.00355262 0.0100439 0.00856535
0.0107643 0.00150499 -0.000127221
0.00829361 0.00676962 0.00989013
0.0143695 0.00769302 0.00839889
0.0123763 0.00770344 0.00983675
0.00994187 0.00314964 -0.000117752
0.00483033 0.00580577 -5.84718e-05
0.0108283 0.00876323 -0.000128967
0.0108105 0.010131 0.001256
0.00831338 0.00697121 -9.99166e-05
0.010027 0.00649614 0.00290971
0.0108025 0.000139796 0.0012572
0.0041361 0.00505087 0.00994539
0.00621551 0.00591138 0.00991754
0.00621409 0.00424461 0.00991774
0.0108065 0.0101296 0.00847534
0.00354908 4.56803e-05 0.00856664
0.0143657 0.00592099 0.00318981
0 0.00302218 0.00691532
0.0143644 0.00419868 0.00831026
0.0122275 0.00417276 -0.000143614
0.0143683 0.00289274 0.00137566
0 0.00244495 0.00857025
0.00350616 0.00861402 0.0099537
0.010798 0.000139018 0.00847682
0.0121991 0.00277786 0.00983962
0.0127216 0.0043532 0.00983214
0.00814876 0.0100993 0.00572939
0.00745091 0.00767651 0.00493809
0.00811 0.0100988 0.00411249
0.0100224 0.0101217 0.00679848
0.00433523 0.00697029 0.00994263
0.0059855 0.00440703 -7.17495e-05
0.00406691 5.24594e-05 0.00435356
0.00452272 5.86227e-05 0.00576884
0.0143699 0.00437643 0.000960212
0.00522475 0.00840333 0.00152281
0.0143638 0.00450938 0.00398977
0.00958621 0.0058935 -0.00011468
0.0123548 0.0101492 0.00235611
0 0.00848692 0.00262374
0.00193555 0.0100251 0.0040347
0 0.00885053 0.00419359
0.00602718 0.00892569 -7.3291e-05
0.00604142 0.0100741 0.00161208
0.00718221 0.00488328 0.00229025
0.0103809 0.00465297 -0.000123074
0.00810223 0.000104315 0.00411504
0.00814143 0.000104862 0.00573139
0.00188032 0.0100241 0.00239331
0.0123247 0.00260315 -0.00014506
0.014363 0.00470141 0.00703287
0.0102292 0.0101244 0.00487106
0.0082477 0.00346812 0.00989087
0.00352608 4.61244e-05 0.00131242
0.0143653 0.00262924 0.00837807
0.00343448 0.00483516 0.00495616
0.00838486 0.00443713 -9.97853e-05
0.0119636 0.00595642 -0.000140608
0.00787296 0.010096 0.007119
0.0143624 0.00450971 0.00565126
0.0077662 0.0100948 0.00267834
0.0102212 0.000130826 0.00487273
0.00406979 0.0100502 0.00435149
0 0.00452174 0.00721958
0.0064913 0.00730082 0.00991374
0.00786563 0.000101322 0.00712014
0.0051721 0.00514025 0.00353054
0.00610664 0.0100746 0.00492977
0.00610059 7.90823e-05 0.00493235
0.00526814 0.00528384 0.00610791
0 0.005744 0.00499998
0 0.00433013 0.00583333
0.00718624 0.00583556 -8.61477e-05
0.00716158 0.0064298 0.00346376
0.00775873 0.000100072 0.00268027
0.0143643 0.00592033 0.00481994
0.00529749 0.00647569 0.00477652
0.00824961 0.00510306 0.00989077
0.0143699 0.00595106 0.00142024
0 0.00666667 0
0.0123595 0.0076719 -0.000145397
0.00478559 6.27746e-05 -5.76409e-05
0 0.01 0.00666667
0.00718378 0.0100868 0.00990492
0 0.00288419 0.00499914
0.0143726 0.00766281 0.00120778
0.014376 0.00684124 -0.000164121
0 0.005 0.01
0.00718319 0.00297696 -8.56943e-05
0 0.005 0
0.0143699 0.000191015 0.00316023
0.0143777 0.0101636 0.00647984
0.00602909 0.00735046 -7.29172e-05
0.0143628 0.0030674 0.00481986
0.00718388 9.40239e-05 -8.61209e-05
0 0 0.00666667
0.00545193 0.00368636 0.00515732
0.00717734 9.23014e-05 0.00990608
0.0143681 0.00019047 0.00648204
0 0 0.005
0.0126333 0.0101513 0.00106988
0.0143774 0.00894833 0.00105409
0.0143682 0.000190434 0.00482059
0.0143747 0.00517935 -0.000162956
0.00174769 0.00124253 -2.21342e-05
0 0.00122008 0.00122008
0 0.00333333 0.01
0 0.00666667 0.01
0.0126329 0.00893223 -0.000148583
0.014379 0.0101631 0.00315771
0.00605468 0.010074 0.00332208
0.0143734 0.00684073 0.00980269
0 0.00333333 0
0 0.00122008 0.00877992
0.00174591 2.20725e-05 0.00875824
0.00174575 0.00124208 0.0099777
0.0126284 0.0101499 0.00861372
0.00174673 0.00880202 0.00997759
0 0.00877992 0.00877992
0.0143737 0.00894701 0.00858723
0.00959159 0.0101163 -0.000116137
0.014371 0.00140893 0.00105416
0.00174719 0.0100221 0.00875759
0.0126274 0.00893014 0.00983251
0.0143719 0.00517793 0.00980328
0 0 0.00333333
0.00958301 0.000124816 -0.00011416
0.0126243 0.000163978 0.00107031
0.00173537 2.22797e-05 0.00118979
0 0.00877992 0.00122008
0.001747 0.00880265 -2.23987e-05
0.00173517 0.0100221 0.00118889
0.0143674 0.00140744 0.008588
0.0126212 0.00138254 0.0098336
0.00957573 0.000123206 0.00987452
0.0126267 0.00138436 -0.000148098
0.01262 0.000162798 0.00861531
0.0143745 0.00351672 -0.000162657
0.00478483 0.0100581 0.00993651
0.00352797 0.0100436 0.00131129
0.00958427 0.0101151 0.00987348
0.0143705 0.00351469 0.00980312
0 0.01 0.005
0.00376593 0.00853481 -4.6302e-05
0.0143775 0.0101633 0.00482013
0 0.01 0.00333333
0 0.00166667 0
0.0143733 0.000190883 0.00149909
0 0.00166667 0.01
0 0.00833333 0
0.0143804 0.00850411 -0.000164734
0.0143699 0.000190095 0.00814389
0.0143827 0.010165 0.00149887
0.0143793 0.0101638 0.00814217
0.00238865 0.0100292 0.00996897
0 0.01 0.00833333
0.0119938 0.0101436 -0.000142505
0.0119848 0.000156772 -0.000141627
0.0119789 0.000154903 0.00984292
0.0119874 0.0101418 0.00984165
0 0 0.00833333
0.014377 0.00850111 0.00980363
0.00238911 3.14825e-05 -2.97285e-05
0 0 0.00166667
0.00478902 0.010059 -5.87571e-05
0.0143713 0.00185351 0.00980437
0.0143757 0.00185557 -0.000163479
0.0023861 3.05468e-05 0.00996959
0.0023894 0.0100299 -3.02976e-05
0 0.01 0.00166667
0.0143827 0.0101655 0.00980503
0 0 0.01
0.0143874 0.010166 -0.000166025
0.0143738 0.000188914 0.00980696
0 0.01 0.01
0.0143787 0.00019062 -0.000165059
0 0.01 0
0 0 0
0.00719014 0.0100877 -8.78025e-05
0.00478039 6.1523e-05 0.00993725
0 0.00833333 0.01

CELLS 343 686
1 0
1 1
1 2
1 3
1 4
1 5
1 6
1 7
1 8
1 9
1 10
1 11
1 12
1 13
1 14
1 15
1 16
1 17
1 18
1 19
1 20
1 21
1 22
1 23
1 24
1 25
1 26
1 27
1 28
1 29
1 30
1 31
1 32
1 33
1 34
1 35
1 36
1 37
1 38
1 39
1 40
1 41
1 42
1 43
1 44
1 45
1 46
1 47
1 48
1 49
1 50
1 51
1 52
1 53
1 54
1 55
1 56
1 57
1 58
1 59
1 60
1 61
1 62
1 63
1 64
1 65
1 66
1 67
1 68
1 69
1 70
1 71
1 72
1 73
1 74
1 75
1 76
1 77
1 78
1 79
1 80
1 81
1 82
1 83
1 84
1 85
1 86
1 87
1 88
1 89
1 90
1 91
1 92
1 93
1 94
1 95
1 96
1 97
1 98
1 99
1 100
1 101
1 102
1 103
1 104
1 105
1 106
1 107
1 108
1 109
1 110
1 111
1 112
1 113
1 114
1 115
1 116
1 117
1 118
1 119
1 120
1 121
1 122
1 123
1 124
1 125
1 126
1 127
1 128
1 129
1 130
1 131
1 132
1 133
1 134
1 135
1 136
1 137
1 138
1 139
1 140
1 141
1 142
1 143
1 144
1 145
1 146
1 147
1 148
1 149
1 150
1 151
1 152
1 153
1 154
1 155
1 156
1 157
1 158
1 159
1 160
1 161
1 162
1 163
1 164
1 165
1 166
1 167
1 168
1 169
1 170
1 171
1 172
1 173
1 174
1 175
1 176
1 177
1 178
1 179
1 180
1 181
1 182
1 183
1 184
1 185
1 186
1 187
1 188
1 189
1 190
1 191
1 192
1 193
1 194
1 195
1 196
1 197
1 198
1 199
1 200
1 201
1 202
1 203
1 204
1 205
1 206
1 207
1 208
1 209
1 210
1 211
1 212
1 213
1 214
1 215
1 216
1 217
1 218
1 219
1 220
1 221
1 222
1 223
1 224
1 225
1 226
1 227
1 228
1 229
1 230
1 231
1 232
1 233
1 234
1 235
1 236
1 237
1 238
1 239
1 240
1 241
1 242
1 243
1 244
1 245
1 246
1 247
1 248
1 249
1 250
1 251
1 252
1 253
1 254
1 255
1 256
1 257
1 258
1 259
1 260
1 261
1 262
1 263
1 264
1 265
1 266
1 267
1 268
1 269
1 270
1 271
1 272
1 273
1 274
1 275
1 276
1 277
1 278
1 279
1 280
1 281
1 282
1 283
1 284
1 285
1 286
1 287
1 288
1 289
1 290
1 291
1 292
1 293
1 294
1 295
1 296
1 297
1 298
1 299
1 300
1 301
1 302
1 303
1 304
1 305
1 306
1 307
1 308
1 309
1 310
1 311
1 312
1 313
1 314
1 315
1 316
1 317
1 318
1 319
1 320
1 321
1 322
1 323
1 324
1 325
1 326
1 327
1 328
1 329
1 330
1 331
1 332
1 333
1 334
1 335
1 336
1 337
1 338
1 339
1 340
1 341
1 342

CELL_TYPES 343
1
1
1
1
1
1
1
1
1
1
1
1
1
1
1
1
1
1
1
1
1
1
1
1
1
1
1
1
1
1
1
1
1
1
1
1
1
1
1
1
1
1
1
1
1
1
1
1
1
1
1
1
1
1
1
1
1
1
1
1
1
1
1
1
1
1
1
1
1
1
1
1
1
1
1
1
1
1
1
1
1
1
1
1
1
1
1
1
1
1
1
1
1
1
1
1
1
1
1
1
1
1
1
1
1
1
1
1
1
1
1
1
1
1
1
1
1
1
1
1
1
1
1
1
1
1
1
1
1
1
1
1
1
1
1
1
1
1
1
1
1
1
1
1
1
1
1
1
1
1
1
1
1
1
1
1
1
1
1
1
1
1
1
1
1
1
1
1
1
1
1
1
1
1
1
1
1
1
1
1
1
1
1
1
1
1
1
1
1
1
1
1
1
1
1
1
1
1
1
1
1
1
1
1
1
1
1
1
1
1
1
1
1
1
1
1
1
1
1
1
1
1
1
1
1
1
1
1
1
1
1
1
1
1
1
1
1
1
1
1
1
1
1
1
1
1
1
1
1
1
1
1
1
1
1
1
1
1
1
1
1
1
1
1
1
1
1
1
1
1
1
1
1
1
1
1
1
1
1
1
1
1
1
1
1
1
1
1
1
1
1
1
1
1
1
1
1
1
1
1
1
1
1
1
1
1
1
1
1
1
1
1
1
1
1
1
1
1
1
1
1
1
1
1
1
1
1
1
1
1
1
1
1
1
1
1
1
1
1
1
1
1
1

POINT_DATA 343
FIELD FieldData 8

NodeID_(#) 1 343 int
0
1
2
3
4
5
6
7
8
9
10
11
12
13
14
15
16
17
18
19
20
21
22
23
24
25
26
27
28
29
30
31
32
33
34
35
36
37
38
39
40
41
42
43
44
45
46
47
48
49
50
51
52
53
54
55
56
57
58
59
60
61
62
63
64
65
66
67
68
69
70
71
72
73
74
75
76
77
78
79
80
81
82
83
84
85
86
87
88
89
90
91
92
93
94
95
96
97
98
99
100
101
102
103
104
105
106
107
108
109
110
111
112
113
114
115
116
117
118
119
120
121
122
123
124
125
126
127
128
129
130
131
132
133
134
135
136
137
138
139
140
141
142
143
144
145
146
147
148
149
150
151
152
153
154
155
156
157
158
159
160
161
162
163
164
165
166
167
168
169
170
171
172
173
174
175
176
177
178
179
180
181
182
183
184
185
186
187
188
189
190
191
192
193
194
195
196
197
198
199
200
201
202
203
204
205
206
207
208
209
210
211
212
213
214
215
216
217
218
219
220
221
222
223
224
225
226
227
228
229
230
231
232
233
234
235
236
237
238
239
240
241
242
243
244
245
246
247
248
249
250
251
252
253
254
255
256
257
258
259
260
261
262
263
264
265
266
267
268
269
270
271
272
273
274
275
276
277
278
279
280
281
282
283
284
285
286
287
288
289
290
291
292
293
294
295
296
297
298
299
300
301
302
303
304
305
306
307
308
309
310
311
312
313
314
315
316
317
318
319
320
321
322
323
324
325
326
327
328
329
330
331
332
333
334
335
336
337
338
339
340
341
342

Component_(#) 1 343 int
0
0
0
0
0
0
0
0
0
0
0
0
0
0
0
0
0
0
0
0
0
0
0
0
0
0
0
0
0
0
0
0
0
0
0
0
0
0
0
0
0
0
0
0
0
0
0
0
0
0
0
0
0
0
0
0
0
0
0
0
0
0
0
0
0
0
0
0
0
0
0
0
0
0
0
0
0
0
0
0
0
0
0
0
0
0
0
0
0
0
0
0
0
0
0
0
0
0
0
0
0
0
0
0
0
0
0
0
0
0
0
0
0
0
0
0
0
0
0
0
0
0
0
0
0
0
0
0
0
0
0
0
0
0
0
0
0
0
0
0
0
0
0
0
0
0
0
0
0
0
0
0
0
0
0
0
0
0
0
0
0
0
0
0
0
0
0
0
0
0
0
0
0
0
0
0
0
0
0
0
0
0
0
0
0
0
0
0
0
0
0
0
0
0
0
0
0
0
0
0
0
0
0
0
0
0
0
0
0
0
0
0
0
0
0
0
0
0
0
0
0
0
0
0
0
0
0
0
0
0
0
0
0
0
0
0
0
0
0
0
0
0
0
0
0
0
0
0
0
0
0
0
0
0
0
0
0
0
0
0
0
0
0
0
0
0
0
0
0
0
0
0
0
0
0
0
0
0
0
0
0
0
0
0
0
0
0
0
0
0
0
0
0
0
0
0
0
0
0
0
0
0
0
0
0
0
0
0
0
0
0
0
0
0
0
0
0
0
0
0
0
0
0
0
0
0
0
0
0
0
0
0
0
0
0
0
0
0
0
0
0
0
0

NodalMass_(kg) 1 343 double
3.15563e-06
1.41304e-05
2.20912e-06
1.71484e-05
8.42e-06
9.09306e-06
1.01179e-05
7.52198e-06
6.81096e-06
5.58223e-06
3.10888e-06
1.07575e-05
4.87011e-06
1.64955e-05
3.0246e-06
8.05984e-06
6.703e-06
1.0877e-05
4.18978e-06
8.16106e-06
6.14143e-06
1.17902e-05
2.23114e-06
4.25176e-06
1.09915e-05
7.41467e-06
4.21871e-06
3.92484e-06
3.08766e-06
1.31268e-05
7.72627e-06
1.65404e-05
1.19037e-05
7.97564e-06
3.81683e-06
1.11001e-05
3.81317e-06
1.39137e-05
6.37414e-06
8.00975e-06
7.6712e-06
1.21135e-05
1.6399e-05
2.78633e-06
8.93599e-06
2.58087e-06
7.57362e-06
4.23241e-06
1.31286e-05
3.80168e-06
2.7746e-06
7.16776e-06
1.21307e-05
5.11765e-06
8.19728e-06
4.58094e-06
2.79503e-06
3.26126e-06
4.12443e-06
2.11915e-06
3.35177e-06
3.61669e-06
1.56838e-05
7.33679e-06
8.24695e-06
5.00369e-06
2.82625e-06
7.20276e-06
3.26815e-06
4.18751e-06
2.02785e-06
2.42152e-06
3.11835e-06
5.97459e-06
5.87101e-06
4.09374e-06
5.45463e-06
2.28825e-06
4.49759e-06
4.38192e-06
4.50892e-06
4.39234e-06
4.27273e-06
5.32031e-06
1.53201e-06
2.38869e-06
2.02885e-06
4.38798e-06
3.17972e-06
3.14298e-06
4.61567e-06
5.87645e-06
8.18088e-06
2.48341e-06
1.53815e-05
3.49683e-06
7.35227e-06
2.01314e-06
2.0408e-06
7.98183e-06
4.41293e-06
7.1389e-06
1.20123e-06
5.03343e-06
1.61257e-06
4.12601e-06
8.73748e-06
4.37849e-06
7.97173e-06
2.13557e-06
3.38137e-06
9.48623e-06
7.40262e-06
1.80226e-06
2.10222e-06
7.98889e-06
1.87983e-06
7.44814e-06
4.19782e-06
2.37156e-06
4.31705e-06
6.06441e-06
4.30905e-06
2.16843e-06
1.8986e-06
1.81294e-06
3.89762e-06
2.44299e-06
1.65628e-06
8.01374e-06
1.64513e-06
2.3931e-06
3.01363e-06
2.99431e-06
1.36541e-06
1.87293e-06
2.09622e-06
1.94762e-06
1.87618e-06
6.37913e-06
4.58628e-06
2.02767e-06
1.61999e-06
2.41284e-06
3.8865e-06
4.44973e-06
2.29839e-06
1.17349e-05
3.11811e-06
1.354e-06
3.45063e-06
1.81846e-06
2.9382e-06
1.37381e-06
2.41464e-06
2.10451e-06
2.63927e-06
2.14166e-06
1.7943e-06
3.19976e-06
1.36989e-06
2.43489e-06
2.08158e-06
1.3601e-06
2.17203e-06
1.89924e-06
3.16996e-06
2.6119e-06
2.37677e-06
1.60225e-06
1.90684e-06
5.49206e-06
1.87878e-06
3.14313e-06
2.97301e-06
1.18454e-06
1.89263e-06
2.04166e-06
2.73572e-06
2.42405e-06
3.23083e-06
3.19752e-06
3.2142e-06
1.94492e-06
1.61196e-06
1.86876e-06
3.22435e-06
2.1114e-06
2.96917e-06
6.15288e-06
2.3097e-06
2.39729e-06
2.38029e-06
2.64508e-06
1.66557e-06
1.82377e-06
2.06583e-06
5.73271e-06
2.08467e-06
2.18324e-06
2.43522e-06
3.1188e-06
3.17316e-06
2.05447e-06
1.9592e-06
3.05718e-06
6.44327e-06
2.08796e-06
2.72615e-06
2.15709e-06
1.86812e-06
2.0028e-06
2.10999e-06
2.88994e-06
2.3222e-06
2.3979e-06
1.97629e-06
6.4127e-06
2.16225e-06
3.29198e-06
2.10223e-06
2.66566e-06
1.94415e-06
2.91865e-06
2.58116e-06
2.11703e-06
2.09534e-06
1.91719e-06
7.06046e-06
2.25203e-06
2.06378e-06
6.28159e-06
2.12147e-06
2.90924e-06
2.12921e-06
6.4487e-06
1.41701e-06
2.0682e-06
6.58062e-06
2.52584e-06
2.39732e-06
7.42191e-07
2.22368e-06
7.06751e-07
7.00657e-07
8.93749e-07
2.53536e-06
2.26535e-06
1.33607e-06
7.84725e-07
2.32303e-06
6.06694e-07
6.68276e-07
6.84307e-07
2.51242e-06
2.31629e-06
7.8367e-07
6.80839e-07
6.22692e-06
6.7471e-07
6.65305e-07
7.01158e-07
1.8232e-06
1.90695e-06
6.86722e-07
7.04792e-07
1.86445e-06
2.28572e-06
6.8045e-07
7.16005e-07
1.82373e-06
6.01079e-07
2.02791e-06
7.4579e-07
5.74423e-07
1.80052e-06
1.454e-06
2.2702e-06
1.80636e-06
2.15356e-06
1.79089e-06
1.79456e-06
6.8231e-07
2.24737e-06
1.45239e-06
1.79556e-06
6.97875e-07
6.24265e-07
6.62717e-07
1.44627e-06
1.40138e-06
2.15258e-06
1.82851e-06
1.3994e-06
1.43932e-06
2.19226e-06
6.97732e-07
1.77726e-06
1.79162e-06
6.54258e-07
7.3397e-07
2.34895e-06
7.10392e-07
6.56982e-07
6.26314e-07
2.18926e-06
6.12493e-07
6.03901e-07
5.92831e-07
5.12031e-07
5.11667e-07
4.9467e-07
4.97016e-07
4.96269e-07
5.33079e-07
4.94191e-07
4.97855e-07
4.86862e-07
4.90626e-07
4.94649e-07
4.94954e-07
4.91922e-07
4.89615e-07
4.96354e-07
4.95189e-07
4.82188e-07
1.10854e-06
5.3299e-07
5.44763e-07
5.36655e-07
5.15417e-07
5.01772e-07
5.53774e-07
5.53774e-07
5.53774e-07
5.53774e-07
5.53774e-07
5.53774e-07
5.50785e-07
5.50785e-07
7.45291e-07
7.11668e-07
4.9897e-07

NodalForce_(N) 3 343 double
1.61479e-08 9.91344e-09 1.31461e-09
2.05052e-08 1.22917e-07 1.66472e-08
0.000278873 2.57767e-05 0.000584938
3.06983e-07 1.31997e-07 2.48248e-09
3.47496e-07 5.88231e-07 1.44852e-07
4.83916e-08 5.60405e-07 2.07563e-07
-2.85982e-08 1.35944e-06 5.03705e-07
5.41767e-08 6.82255e-07 2.1267e-07
7.69352e-08 7.67026e-07 3.02004e-07
-3.24711e-08 3.09843e-07 9.45698e-08
6.10128e-08 1.63465e-07 8.30823e-08
2.74326e-07 7.89014e-07 3.37379e-07
2.37421e-07 2.6517e-07 1.17215e-07
1.58277e-07 1.04272e-07 1.49278e-08
-1.44132e-09 1.41338e-07 8.31328e-08
-4.74975e-07 8.60495e-07 3.89515e-07
-2.29239e-07 6.21305e-07 2.32052e-07
1.69094e-07 1.15442e-07 3.03353e-08
0.000787111 0.000629113 0.000343261
5.15484e-08 3.19866e-08 1.46778e-08
3.00368e-07 7.12862e-07 2.12992e-07
6.40041e-07 1.74027e-06 6.00763e-07
0.00175707 -0.000377067 0.000358688
3.03912e-07 2.40268e-07 6.95981e-08
6.80146e-07 7.71814e-07 1.77517e-07
2.17274e-07 2.7816e-07 8.64462e-08
8.33519e-08 1.36901e-08 2.18273e-09
3.29701e-07 2.32359e-07 4.00933e-08
-5.10493e-09 4.59549e-08 2.06575e-08
-1.85731e-07 8.44527e-08 1.17959e-08
-4.1486e-08 2.67012e-07 1.01389e-07
-1.81882e-06 2.3003e-06 1.12994e-06
-4.23324e-07 1.70283e-06 7.87909e-07
-3.52458e-07 1.25294e-06 5.23937e-07
-3.45898e-07 8.06588e-07 3.3326e-07
-7.71048e-07 1.42233e-06 5.68012e-07
-4.47443e-07 6.20588e-07 2.57221e-07
-6.74091e-07 2.01024e-06 7.58487e-07
7.00112e-08 1.86788e-07 6.63057e-08
-3.60624e-08 3.5115e-07 1.90327e-07
2.97804e-07 3.30754e-07 6.60453e-08
-8.34203e-07 6.72499e-07 3.48991e-07
-3.72088e-07 9.99106e-08 7.00393e-08
-1.58129e-07 5.29446e-08 2.48319e-08
-4.71863e-07 3.19843e-07 1.13309e-07
0.00105175 -1.0894e-05 -0.000351474
-4.26426e-08 4.2291e-08 6.93768e-09
0.000398723 0.000593013 -0.000461436
-1.29252e-07 1.23875e-07 5.33853e-08
-2.44889e-08 1.61857e-08 8.64807e-09
-2.80976e-07 3.10673e-07 1.81534e-07
-3.99629e-07 5.84207e-07 3.19101e-07
-2.04842e-07 8.16204e-08 2.9733e-08
-1.1973e-07 8.52795e-08 4.03161e-08
-5.92133e-08 3.93321e-08 1.37191e-08
-2.83406e-07 9.6499e-07 4.50166e-07
0.000807728 -0.000245435 3.31198e-05
3.50723e-09 1.87061e-08 7.08663e-09
0.0019214 -0.000594373 0.000676961
-1.74337e-07 4.4435e-07 2.01034e-07
-4.55251e-08 6.13139e-08 4.15752e-08
3.09252e-07 8.18821e-07 2.97234e-07
1.46257e-06 2.52163e-06 7.67347e-07
2.71024e-07 1.20708e-06 4.29851e-07
3.64076e-07 3.41099e-07 4.31676e-08
-1.18227e-07 3.94693e-09 1.11978e-08
1.28863e-07 7.10684e-08 1.32918e-08
-1.33837e-07 6.11531e-07 3.14185e-07
-1.73967e-07 6.92207e-07 2.80202e-07
4.89875e-07 7.62531e-07 2.46655e-07
7.77236e-08 5.81609e-08 2.19828e-08
1.37258e-08 4.79621e-08 2.75185e-08
1.71275e-07 9.05348e-08 1.11425e-08
-1.38582e-07 2.91056e-07 1.48932e-07
1.1043e-07 1.28506e-07 2.46534e-08
0.00134368 -0.000301292 -0.000491597
1.34488e-07 3.08118e-07 7.74459e-08
3.09801e-08 6.43888e-09 4.84006e-09
-4.90259e-07 3.41825e-07 2.19208e-07
-5.72759e-07 3.6221e-07 1.94982e-07
-4.09068e-07 1.99038e-07 1.05648e-07
-3.43229e-07 1.73171e-07 1.24719e-07
-4.25663e-07 8.9559e-07 3.90907e-07
-7.87138e-08 1.06109e-07 2.16973e-08
0.00119805 0.000337523 0.000217258
-1.44619e-08 4.66079e-09 3.36996e-09
0.00121216 -0.00013728 -0.000281947
0.00184843 -0.000236528 -0.000496155
0.00105034 0.000789557 -0.000567256
4.78041e-08 4.5619e-08 1.87833e-08
-5.89784e-08 1.47833e-08 1.14732e-08
-2.43839e-07 3.4291e-07 1.44046e-07
-2.90591e-07 1.84026e-07 1.41186e-07
-2.37635e-09 2.90003e-07 1.46819e-07
4.75276e-07 2.37508e-06 1.00713e-06
4.09776e-07 4.63832e-07 1.17033e-07
5.2674e-07 7.20591e-07 1.71101e-07
1.2203e-07 4.46116e-07 1.63441e-07
0.0017855 0.000801519 -5.52052e-05
-6.76313e-07 7.37624e-07 3.14796e-07
4.44899e-07 4.29438e-07 1.29072e-07
3.5862e-07 6.52385e-07 2.02693e-07
-6.86872e-08 2.98428e-08 8.68071e-09
-6.79698e-07 8.07219e-07 3.54348e-07
6.9907e-08 3.7932e-08 1.01737e-08
4.89277e-07 4.2862e-07 1.02964e-07
-5.34109e-07 8.08042e-07 2.73755e-07
4.32279e-07 7.89315e-07 2.79411e-07
3.81284e-07 7.99636e-07 2.70671e-07
2.90544e-09 4.2748e-09 3.87028e-09
-4.51811e-08 4.01296e-07 1.65617e-07
-3.27085e-07 6.0649e-07 2.0628e-07
-1.61699e-08 5.97406e-07 2.2383e-07
0.000676214 0.000382106 -0.000451624
2.17704e-07 4.80011e-07 1.65973e-07
2.10053e-08 4.23041e-08 1.09838e-08
-1.23199e-07 4.00408e-07 1.61129e-07
-2.02239e-07 1.18828e-06 4.49591e-07
-3.19646e-07 3.7306e-07 1.46197e-07
1.91756e-07 3.06973e-07 1.07987e-07
2.92521e-07 9.69211e-07 3.73889e-07
8.5761e-08 9.8834e-07 3.90098e-07
7.85019e-08 1.84535e-08 3.80128e-09
0.00146385 0.000190656 0.000396307
2.67062e-08 6.54516e-09 8.71574e-10
-1.10017e-07 3.82652e-07 1.644e-07
-1.39733e-07 3.25833e-07 1.37967e-07
0.00166738 0.000458646 -0.000774148
-2.81138e-08 1.91002e-09 5.94348e-09
-3.48863e-07 3.4634e-07 8.69374e-08
-2.51254e-07 2.65559e-07 1.25189e-07
-2.90406e-07 4.97614e-07 2.34467e-07
5.57281e-08 2.69279e-07 1.33999e-07
-1.06758e-07 3.56816e-07 1.91125e-07
0.00114636 -0.000190799 0.00041555
-4.2005e-08 3.81047e-09 8.11654e-10
0.00146203 -0.000349702 0.000391209
2.6243e-07 3.62051e-07 1.06971e-07
-5.42177e-08 4.02797e-07 1.57231e-07
-6.76676e-08 1.0437e-06 3.79477e-07
-3.64938e-07 7.22274e-07 3.74991e-07
5.02319e-08 2.8621e-07 1.35718e-07
1.32747e-07 2.9437e-07 1.17008e-07
1.2629e-07 5.38439e-07 2.22363e-07
0.00105181 0.000557629 -0.000749666
2.76631e-07 4.39293e-07 1.89074e-07
1.8263e-07 1.36524e-07 1.85281e-08
3.36716e-07 1.72933e-06 5.89555e-07
1.11022e-07 6.80412e-07 2.53495e-07
-1.15613e-07 6.21137e-08 2.51312e-08
-1.64373e-07 6.25836e-08 1.83554e-08
3.59348e-08 7.83772e-09 -2.64366e-09
0.00232375 0.000724113 -2.55695e-05
-6.02202e-08 2.91548e-07 1.269e-07
-2.31578e-07 2.79495e-07 1.02097e-07
-2.84856e-07 2.62612e-07 1.49198e-07
0.00151798 0.000113023 -0.000675676
0.0009183 0.000834106 0.00178935
-1.24792e-07 1.8457e-07 1.07054e-07
6.11013e-08 6.99852e-07 2.92116e-07
8.45961e-08 7.76136e-08 1.93859e-08
-1.35711e-07 3.9183e-08 2.06496e-08
2.45403e-07 3.07416e-07 9.90567e-08
-1.04034e-07 9.8517e-08 6.55752e-08
-2.301e-07 4.51516e-07 2.19144e-07
-2.30126e-07 3.00045e-07 1.6078e-07
2.50734e-07 3.85218e-07 1.31485e-07
2.19148e-08 5.91023e-08 2.85711e-08
-1.04243e-07 3.15938e-07 1.31976e-07
-1.34512e-07 2.15949e-07 8.49952e-08
-1.0706e-08 1.50938e-07 6.61925e-08
-1.11464e-07 6.14211e-07 2.10465e-07
2.56146e-07 2.8654e-07 7.86806e-08
-8.40836e-08 4.2259e-08 4.4299e-08
-1.35093e-07 1.06095e-07 9.1134e-08
-2.74107e-08 4.54324e-08 3.51794e-08
-2.90233e-07 2.43801e-07 1.23182e-07
6.47951e-08 4.19939e-08 1.34309e-08
-2.0792e-08 5.89713e-07 2.26543e-07
0.00182 -0.000125785 0.000258662
-6.68461e-08 6.9198e-07 3.1492e-07
2.11788e-07 5.47158e-07 1.98875e-07
2.69418e-07 7.2161e-07 2.53057e-07
0.00140143 -0.000198675 -0.000310369
-7.64928e-08 2.32963e-08 2.13284e-08
1.2513e-07 2.74928e-07 1.17489e-07
-1.1084e-08 5.34841e-07 2.58846e-07
-8.60901e-08 3.66219e-07 1.81217e-07
-3.07353e-07 2.30837e-07 8.79327e-08
-3.13709e-07 3.81409e-07 1.27414e-07
-2.09524e-07 1.81379e-07 6.00206e-08
-3.15889e-07 2.69705e-07 1.20485e-07
-1.00569e-07 3.33389e-08 4.21716e-08
7.90469e-08 1.04978e-07 4.43861e-08
8.19306e-08 4.86044e-08 1.44917e-09
9.70909e-08 5.98619e-08 5.26954e-09
1.09083e-07 4.56295e-07 1.66419e-07
-1.71663e-07 1.96602e-07 6.50769e-08
3.56335e-08 4.52507e-07 1.74239e-07
3.98695e-08 2.32482e-07 9.10629e-08
-2.44886e-07 4.03535e-07 1.60874e-07
0.00152534 -0.000313027 -8.78492e-05
-5.63472e-08 3.38309e-09 5.81339e-09
0.00134194 -0.000625377 2.3767e-05
-6.40224e-08 9.37229e-08 3.94841e-08
-1.84832e-07 1.44017e-07 5.13633e-08
9.55527e-08 3.59392e-07 1.17173e-07
9.95657e-08 2.64345e-07 9.64623e-08
2.51987e-07 2.57443e-07 4.83664e-08
1.70514e-07 2.01681e-07 5.38157e-08
-3.03519e-08 2.09448e-09 1.55427e-09
2.0662e-07 3.56665e-07 1.2329e-07
-4.14213e-08 4.51943e-07 1.9695e-07
-3.34182e-07 3.40754e-07 1.36206e-07
-3.46339e-08 1.78294e-07 1.0379e-07
1.25329e-07 5.75371e-08 2.61309e-09
3.18895e-08 4.34109e-07 1.90135e-07
-1.16899e-08 7.47787e-08 1.86047e-08
9.67484e-08 1.80788e-07 6.81169e-08
7.41712e-08 5.35346e-07 2.07909e-07
-2.3308e-07 1.50906e-07 6.81083e-08
-1.21079e-09 5.7541e-07 2.36097e-07
-1.53629e-07 1.43795e-07 4.92833e-08
2.91255e-07 3.9403e-07 1.16796e-07
-1.28917e-07 4.65923e-08 1.21742e-08
0.00164144 0.000294963 0.000730838
-1.46516e-07 8.82809e-08 6.99829e-08
1.29418e-07 1.66318e-07 5.76318e-08
-5.50168e-10 1.89798e-07 4.15476e-08
-1.7584e-07 1.04134e-07 3.04346e-08
1.50583e-07 1.21724e-07 1.35506e-08
-6.383e-08 1.68784e-07 5.89471e-08
0.00202573 -0.00142733 8.23935e-05
0.00190257 0.000716657 -0.00115588
2.95412e-08 1.20388e-07 5.38112e-08
-1.2296e-07 3.52342e-07 9.85216e-08
1.4144e-07 1.26586e-07 2.5379e-08
-5.26699e-08 4.42862e-07 1.80071e-07
-1.21663e-07 1.79219e-07 5.03678e-08
-1.14474e-07 1.76472e-07 1.17044e-07
2.50447e-08 5.22153e-07 1.96758e-07
0.000825345 0.000734489 1.20635e-05
-3.83915e-08 3.72361e-07 1.53098e-07
5.35521e-08 3.06217e-08 5.68103e-09
0.000896923 -1.50978e-05 -0.000979356
-1.07067e-07 5.42102e-08 3.52656e-08
0.00206701 -0.00115446 0.000144007
-6.4427e-08 4.87671e-07 1.89677e-07
6.58053e-09 2.90463e-07 1.16844e-07
0.000788323 -0.00107024 0.000117395
1.4683e-07 1.54728e-07 5.43861e-08
0.000741573 0.00119089 -7.01016e-05
8.53702e-08 1.5476e-07 5.27833e-08
-9.82145e-08 1.42188e-07 6.53423e-08
-2.55907e-08 1.02494e-07 4.90438e-08
9.93538e-08 5.10008e-07 1.97624e-07
8.6277e-08 6.39305e-08 1.6005e-08
0.000660589 -0.000178508 0.000797181
7.5986e-08 1.95741e-07 4.81875e-08
2.95327e-08 5.40385e-08 2.74988e-08
6.16102e-08 1.52432e-07 5.89586e-08
0.000418571 -0.000437856 0.00102913
-1.60432e-07 3.17471e-07 1.2862e-07
-1.10341e-07 4.10198e-07 1.63491e-07
7.56985e-08 1.5797e-07 5.7292e-08
3.13782e-08 1.56545e-07 6.01679e-08
2.77083e-08 1.00958e-08 2.95014e-09
0.000998015 0.000537663 4.47637e-05
0.000671273 -0.000988726 0.000178666
0.000720308 -0.000984477 9.99725e-05
-8.62373e-08 3.1927e-07 1.32717e-07
-6.51738e-08 1.27577e-07 5.27876e-08
-1.41899e-07 9.43178e-08 2.5366e-08
-7.42083e-08 1.54965e-07 7.79211e-08
0.000763235 0.000483724 0.000137381
0.000413412 0.000369396 -0.000520911
1.69619e-08 6.9896e-09 5.07142e-09
1.00913e-08 8.02489e-09 2.10526e-09
-2.99854e-07 3.02608e-07 1.51083e-07
-3.89376e-08 5.87818e-09 7.10102e-09
0.000628989 -0.000203833 -0.000299599
-2.48395e-07 3.71749e-07 1.83032e-07
-4.66506e-08 7.57115e-08 3.28946e-08
2.75534e-07 5.18207e-07 1.73932e-07
-3.17249e-08 4.40376e-09 1.33652e-09
-2.70475e-07 2.96902e-07 1.57157e-07
-4.14698e-08 1.47346e-07 7.20252e-08
0.000374597 -0.000429569 0.000772066
9.20048e-08 8.35544e-08 2.41315e-08
2.14376e-07 2.80021e-07 8.45732e-08
2.72454e-08 7.99699e-09 -2.95547e-09
0.000507027 -0.000473351 0.0005865
-1.67995e-08 6.88436e-09 1.84701e-09