# vtk DataFile Version 4.2
vtk output
ASCII
DATASET UNSTRUCTURED_GRID

POINTS 343 double
0.00161174 0.00421626 -2.06234e-05
0.00311711 0.00502402 0.0021353
0 0.00419538 0.00112517
0.00277476 0.00199113 0.00190662
0.00744692 0.00251123 0.00493966
0.00744351 0.00393218 0.00630421
0.010975 0.00492904 0.00486381
0.00896151 0.0049747 0.00358161
0.00984598 0.00342695 0.00679093
0.00717989 0.00509057 0.00491026
0.00601959 0.00120213 0.00992142
0.00760576 0.00218678 0.00780768
0.00603941 7.7778e-05 0.00824111
0.00289035 0.00204016 0.00799675
0.0061672 0.00261734 0.00991916
0.0100049 0.00658431 0.0068214
0.00922652 0.00630938 0.0050688
0.00324946 0.0022277 0.0051049
0 0.00143586 0.00417514
0.00228979 0.00349618 0.00400774
0.00985252 0.00333317 0.00304171
0.0111646 0.00237388 0.00492647
0 0.00270918 0.00154168
0.00599756 0.00151371 -7.14795e-05
0.0072188 0.00228965 0.00210941
0.00570525 0.00360521 0.00153317
0.00193522 2.43971e-05 0.00403557
0.0060367 7.84068e-05 0.00161387
0.00377328 0.00700234 -4.59271e-05
0.00277814 0.00808953 0.00190892
0.00587829 0.00632758 0.00157278
0.011506 0.00814268 0.00785134
0.0114651 0.00497651 0.00787691
0.0120683 0.00624822 0.00579759
0.0143708 0.00901856 0.00401897
0.0108968 0.00778516 0.00482927
0.0123143 0.0101492 0.00401661
0.0114765 0.00812925 0.00187817
0.00508564 0.00310492 0.00689579
0.00638272 0.00374831 0.00824216
0.00560566 0.00167854 0.00589888
0.00718909 0.00776472 0.00758541
0.00285083 0.00804543 0.00795353
0.00405189 0.0100501 0.00707556
0.00562157 0.00847423 0.00588664
0 0.00695361 0.00262895
0.00236174 0.00627046 0.00405762
0 0.0040177 0.00850214
0.00332171 0.00502917 0.00761952
0.00205543 0.00420082 0.00997391
0.0103141 0.00725826 0.00986512
0.00879679 0.0060906 0.00830504
0.00294159 0.00798034 0.00470409
0.00436899 0.00700138 0.00641283
0.00227613 0.00610832 0.0058969
0.0143647 0.00598459 0.00812898
0 0.00718191 0.00711644
0.0022738 0.00580398 -2.88405e-05
0 0.00577432 0.00158701
0.0143664 0.00735543 0.00693209
0.0041196 0.0034036 0.00994573
0.0143641 0.0016229 0.00400164
0.0115911 0.00211099 0.00184096
0.0120852 0.00367433 0.00385122
0.00536724 0.00172281 0.00406073
0.0021602 0.0100277 0.00578717
0.00404817 5.24346e-05 0.0070772
0.00879235 0.00429266 0.00826357
0.014367 0.00744961 0.00402178
0.0123058 0.000156694 0.00401805
0.00481328 0.00293608 -5.77767e-05
0.00388285 0.00159106 0.00994906
0.00406373 5.28937e-05 0.00278082
0.00689831 0.00528746 0.00746645
0.00454338 0.00320758 0.00310949
0 0.00849157 0.00581511
0.00700426 0.00376626 0.00369893
0.00220917 0.0027378 -2.79374e-05
0.00832902 0.00842741 0.00989049
0.00859122 0.0101045 0.00839531
0.00604457 0.0100743 0.00823995
0.00576492 0.00857479 0.00992373
0.0143681 0.00866072 0.0056341
0.00452042 0.00689446 0.00309266
0 0.00748929 0.00137438
0.00196844 0.007515 -2.51396e-05
0 0.00287343 0.00335182
0 0.00580816 0.00831736
0 0.00429792 0.00253898
0.00364365 0.00434521 -4.43337e-05
0.00205494 0.00584566 0.00997381
0.00743879 0.00656942 0.00630636
0.00517396 0.00657793 0.00816743
0.00998473 0.00275401 0.00986966
0.0115298 0.00210515 0.00788839
0.0100191 0.000128636 0.00296021
0.0086518 0.00177583 0.00350662
0.0143648 0.00305665 0.00317988
0 0.00140616 0.00256446
0.00915893 0.0083407 0.00630556
0.00836505 0.00154397 -9.86105e-05
0.0086782 0.00366305 0.00149876
0.00452686 0.0100559 0.00576685
0.0123047 0.0101493 0.00567856
0.00368043 0.00145408 -4.46458e-05
0.00858999 0.000111037 0.00139062
0.00902865 0.00839946 0.00350545
0.012297 0.000156604 0.00567988
0.00891675 0.00178741 0.00625356
0.0020124 0.00258961 0.00997434
0.0102365 0.00730877 -0.000121195
0.00742626 0.00778315 0.00207719
0.00854448 0.00620115 0.00149856
0 0.00686719 0.00578184
0.0143675 0.00159388 0.00239556
0.00254417 0.00364302 0.00637551
0.0143727 0.00865576 0.0024527
0.0120922 0.00633896 0.00398499
0.00859766 0.0101052 0.00138888
0.010014 0.000128333 0.00680109
0.0143627 0.00162207 0.00563956
0.0120679 0.0037254 0.00590977
0.00215961 2.72072e-05 0.00578797
0 0.0013659 0.00748679
0.00195994 2.47472e-05 0.00750452
0.0143656 0.00704212 0.00560028
0.00836401 0.00859555 -0.000100046
0 0.0075208 0.00859127
0.00195525 0.00751151 0.00997513
0.00607678 0.0082817 0.00355105
0.0123526 0.0101484 0.00735419
0.0143699 0.00879873 0.00733994
0.0082906 0.00169305 0.00989166
0.0104293 0.00431888 0.00986354
0 0.0057735 0.00666667
0.00196092 0.0100251 0.0075036
0 0.00863025 0.00752641
0.0123472 0.000158727 0.00235923
0.0143689 0.00712961 0.00245849
0.0121638 0.00649231 0.00201762
0.0122305 0.00597489 0.00984111
0.0107603 0.0015117 0.00986007
0.0123446 0.000158286 0.00735607
0.0143639 0.00155248 0.0073019
0 0.00143551 0.00581971
0.00858332 0.000110378 0.00839634
0.00604943 7.83188e-05 0.00332465
0.0114092 0.00485139 0.00189831
0.0143665 0.00447845 0.0023701
0.00606991 0.0100745 0.00658883
0.00406639 0.01005 0.00277939
0.00188041 2.3968e-05 0.00239428
0 0.00727418 0.00419576
0.0143641 0.00595049 0.00648301
0.0100272 0.010122 0.00295825
0.0107899 0.00876738 0.0098588
0 0.00574334 0.00336387
0 0.0043297 0.00416652
0.0098688 0.00590659 0.00987095
0.0143621 0.00320477 0.00673287
0.00606414 7.8371e-05 0.0065905
0.00355227 0.0100439 0.00856553
0.0107655 0.00150511 -0.000125878
0.00829262 0.0067697 0.00989116
0.0143686 0.00769322 0.00840123
0.012375 0.00770357 0.00983864
0.00994299 0.00314978 -0.000116575
0.00483092 0.00580583 -5.81686e-05
0.0108294 0.00876341 -0.000127544
0.0108113 0.0101311 0.00125739
0.00831432 0.00697134 -9.90157e-05
0.0100274 0.00649629 0.00291081
0.0108034 0.000139907 0.00125851
0.00413557 0.00505087 0.00994569
0.00621472 0.00591142 0.00991818
0.00621334 0.00424464 0.00991837
0.0108055 0.0101297 0.00847685
0.00354885 4.56628e-05 0.00856679
0.0143662 0.00592123 0.00319197
0 0.00302218 0.00691532
0.0143636 0.00419887 0.00831256
0.0122288 0.00417295 -0.000141931
0.0143693 0.00289294 0.0013778
0 0.00244495 0.00857025
0.00350567 0.00861401 0.00995394
0.0107972 0.000139076 0.00847825
0.0121979 0.00277797 0.00984143
0.0127204 0.00435335 0.00983408
0.00814849 0.0100994 0.00573013
0.00745085 0.00767659 0.00493866
0.00811006 0.0100988 0.0041132
0.0100218 0.0101218 0.00679967
0.00433466 0.00697032 0.00994297
0.00598625 0.00440709 -7.12633e-05
0.00406699 5.24717e-05 0.00435369
0.00452271 5.86317e-05 0.005769
0.014371 0.00437666 0.000962368
0.0052251 0.00840339 0.00152316
0.0143641 0.00450959 0.00399195
0.00958727 0.00589367 -0.000113552
0.0123554 0.0101494 0.00235781
0 0.00848692 0.00262374
0.00193553 0.0100251 0.00403474
0 0.00885053 0.00419359
0.00602786 0.00892577 -7.27699e-05
0.00604181 0.0100741 0.00161254
0.00718266 0.00488337 0.00229082
0.010382 0.00465313 -0.000121798
0.00810246 0.000104375 0.00411569
0.00814133 0.000104911 0.00573208
0.00188037 0.0100241 0.00239332
0.012326 0.00260332 -0.000143371
0.0143625 0.00470162 0.00703514
0.0102291 0.0101245 0.00487225
0.00824677 0.00346817 0.00989185
0.00352638 4.61665e-05 0.00131253
0.0143645 0.0026294 0.00838036
0.00343449 0.00483519 0.00495626
0.00838583 0.00443724 -9.88845e-05
0.0119648 0.00595666 -0.000138953
0.00787245 0.0100961 0.00711977
0.0143623 0.00450992 0.00565348
0.00776653 0.0100949 0.00267902
0.0102213 0.000130915 0.00487386
0.00406978 0.0100502 0.00435163
0 0.00452174 0.00721958
0.00649046 0.00730086 0.00991442
0.00786529 0.000101358 0.00712086
0.00517223 0.0051403 0.00353076
0.00610657 0.0100746 0.00493014
0.00610066 7.91102e-05 0.00493266
0.00526802 0.00528389 0.00610817
0 0.005744 0.00499998
0 0.00433013 0.00583333
0.00718709 0.00583569 -8.54482e-05
0.00716179 0.00642989 0.00346427
0.0077592 0.00010014 0.00268092
0.0143643 0.00592056 0.00482215
0.00529749 0.00647575 0.00477676
0.00824865 0.00510312 0.00989177
0.0143708 0.00595132 0.0014224
0 0.00666667 0
0.0123607 0.00767212 -0.000143639
0.00478622 6.2772e-05 -5.73074e-05
0 0.01 0.00666667
0.00718281 0.0100868 0.00990576
0 0.00288419 0.00499914
0.0143735 0.00766308 0.00120996
0.0143773 0.00684151 -0.000161886
0 0.005 0.01
0.00718407 0.00297704 -8.50297e-05
0 0.005 0
0.0143704 0.000191161 0.00316238
0.0143772 0.0101637 0.00648211
0.00602979 0.00735055 -7.24023e-05
0.0143629 0.00306759 0.00482206
0.0071848 9.40572e-05 -8.54444e-05
0 0 0.00666667
0.00545192 0.00368641 0.00515757
0.00717658 9.23535e-05 0.00990688
0.0143678 0.000190605 0.00648425
0 0 0.005
0.0126341 0.0101515 0.00107169
0.0143783 0.00894858 0.00105629
0.0143683 0.000190578 0.00482277
0.014376 0.00517962 -0.000160739
0.00174785 0.00124253 -2.21089e-05
0 0.00122008 0.00122008
0 0.00333333 0.01
0 0.00666667 0.01
0.0126341 0.00893245 -0.000146753
0.0143794 0.0101633 0.00315992
0.00605483 0.010074 0.00332243
0.0143722 0.00684092 0.00980507
0 0.00333333 0
0 0.00122008 0.00877992
0.00174583 2.20629e-05 0.00875829
0.00174564 0.00124208 0.00997773
0.0126274 0.0101501 0.00861566
0.00174655 0.00880201 0.00997763
0 0.00877992 0.00877992
0.0143727 0.00894719 0.00858959
0.00959258 0.0101164 -0.000114958
0.0143721 0.00140911 0.00105629
0.00174705 0.0100221 0.00875764
0.0126261 0.00893026 0.00983448
0.0143707 0.00517811 0.00980565
0 0 0.00333333
0.00958415 0.000124878 -0.000113038
0.0126254 0.000164107 0.00107203
0.00173549 2.22927e-05 0.00118983
0 0.00877992 0.00122008
0.00174713 0.00880268 -2.23764e-05
0.00173525 0.0100221 0.00118893
0.0143666 0.00140757 0.00859029
0.01262 0.00138265 0.00983552
0.00957474 0.000123291 0.0098758
0.012628 0.00138451 -0.000146346
0.0126192 0.000162892 0.00861717
0.0143758 0.00351694 -0.000160467
0.00478416 0.0100581 0.00993695
0.0035282 0.0100436 0.00131143
0.00958311 0.0101151 0.00987482
0.0143693 0.00351486 0.00980547
0 0.01 0.005
0.00376636 0.00853487 -4.6117e-05
0.0143775 0.0101634 0.00482236
0 0.01 0.00333333
0 0.00166667 0
0.0143743 0.000191033 0.00150123
0 0.00166667 0.01
0 0.00833333 0
0.0143816 0.00850438 -0.000162497
0.0143692 0.00019022 0.00814617
0.0143835 0.0101653 0.00150109
0.0143784 0.0101639 0.00814454
0.00238835 0.0100292 0.0099691
0 0.01 0.00833333
0.011995 0.0101438 -0.000140804
0.0119861 0.000156882 -0.000140005
0.0119778 0.000155 0.00984471
0.0119861 0.0101419 0.00984351
0 0 0.00833333
0.0143757 0.00850128 0.00980603
0.00238937 3.14844e-05 -2.96396e-05
0 0 0.00166667
0.00478955 0.010059 -5.84216e-05
0.0143702 0.00185365 0.00980671
0.0143771 0.00185576 -0.000161302
0.00238591 3.05488e-05 0.00996969
0.0023896 0.0100299 -3.0211e-05
0 0.01 0.00166667
0.0143814 0.0101656 0.00980745
0 0 0.01
0.0143887 0.0101663 -0.000163767
0.0143727 0.000189049 0.00980931
0 0.01 0.01
0.0143801 0.000190752 -0.000162885
0 0.01 0
0 0 0
0.00719094 0.0100878 -8.70915e-05
0.00477984 6.15583e-05 0.00993766
0 0.00833333 0.01

CELLS 343 686
1 0
1 1
1 2
1 3
1 4
1 5
1 6
1 7
1 8
1 9
1 10
1 11
1 12
1 13
1 14
1 15
1 16
1 17
1 18
1 19
1 20
1 21
1 22
1 23
1 24
1 25
1 26
1 27
1 28
1 29
1 30
1 31
1 32
1 33
1 34
1 35
1 36
1 37
1 38
1 39
1 40
1 41
1 42
1 43
1 44
1 45
1 46
1 47
1 48
1 49
1 50
1 51
1 52
1 53
1 54
1 55
1 56
1 57
1 58
1 59
1 60
1 61
1 62
1 63
1 64
1 65
1 66
1 67
1 68
1 69
1 70
1 71
1 72
1 73
1 74
1 75
1 76
1 77
1 78
1 79
1 80
1 81
1 82
1 83
1 84
1 85
1 86
1 87
1 88
1 89
1 90
1 91
1 92
1 93
1 94
1 95
1 96
1 97
1 98
1 99
1 100
1 101
1 102
1 103
1 104
1 105
1 106
1 107
1 108
1 109
1 110
1 111
1 112
1 113
1 114
1 115
1 116
1 117
1 118
1 119
1 120
1 121
1 122
1 123
1 124
1 125
1 126
1 127
1 128
1 129
1 130
1 131
1 132
1 133
1 134
1 135
1 136
1 137
1 138
1 139
1 140
1 141
1 142
1 143
1 144
1 145
1 146
1 147
1 148
1 149
1 150
1 151
1 152
1 153
1 154
1 155
1 156
1 157
1 158
1 159
1 160
1 161
1 162
1 163
1 164
1 165
1 166
1 167
1 168
1 169
1 170
1 171
1 172
1 173
1 174
1 175
1 176
1 177
1 178
1 179
1 180
1 181
1 182
1 183
1 184
1 185
1 186
1 187
1 188
1 189
1 190
1 191
1 192
1 193
1 194
1 195
1 196
1 197
1 198
1 199
1 200
1 201
1 202
1 203
1 204
1 205
1 206
1 207
1 208
1 209
1 210
1 211
1 212
1 213
1 214
1 215
1 216
1 217
1 218
1 219
1 220
1 221
1 222
1 223
1 224
1 225
1 226
1 227
1 228
1 229
1 230
1 231
1 232
1 233
1 234
1 235
1 236
1 237
1 238
1 239
1 240
1 241
1 242
1 243
1 244
1 245
1 246
1 247
1 248
1 249
1 250
1 251
1 252
1 253
1 254
1 255
1 256
1 257
1 258
1 259
1 260
1 261
1 262
1 263
1 264
1 265
1 266
1 267
1 268
1 269
1 270
1 271
1 272
1 273
1 274
1 275
1 276
1 277
1 278
1 279
1 280
1 281
1 282
1 283
1 284
1 285
1 286
1 287
1 288
1 289
1 290
1 291
1 292
1 293
1 294
1 295
1 296
1 297
1 298
1 299
1 300
1 301
1 302
1 303
1 304
1 305
1 306
1 307
1 308
1 309
1 310
1 311
1 312
1 313
1 314
1 315
1 316
1 317
1 318
1 319
1 320
1 321
1 322
1 323
1 324
1 325
1 326
1 327
1 328
1 329
1 330
1 331
1 332
1 333
1 334
1 335
1 336
1 337
1 338
1 339
1 340
1 341
1 342

CELL_TYPES 343
1
1
1
1
1
1
1
1
1
1
1
1
1
1
1
1
1
1
1
1
1
1
1
1
1
1
1
1
1
1
1
1
1
1
1
1
1
1
1
1
1
1
1
1
1
1
1
1
1
1
1
1
1
1
1
1
1
1
1
1
1
1
1
1
1
1
1
1
1
1
1
1
1
1
1
1
1
1
1
1
1
1
1
1
1
1
1
1
1
1
1
1
1
1
1
1
1
1
1
1
1
1
1
1
1
1
1
1
1
1
1
1
1
1
1
1
1
1
1
1
1
1
1
1
1
1
1
1
1
1
1
1
1
1
1
1
1
1
1
1
1
1
1
1
1
1
1
1
1
1
1
1
1
1
1
1
1
1
1
1
1
1
1
1
1
1
1
1
1
1
1
1
1
1
1
1
1
1
1
1
1
1
1
1
1
1
1
1
1
1
1
1
1
1
1
1
1
1
1
1
1
1
1
1
1
1
1
1
1
1
1
1
1
1
1
1
1
1
1
1
1
1
1
1
1
1
1
1
1
1
1
1
1
1
1
1
1
1
1
1
1
1
1
1
1
1
1
1
1
1
1
1
1
1
1
1
1
1
1
1
1
1
1
1
1
1
1
1
1
1
1
1
1
1
1
1
1
1
1
1
1
1
1
1
1
1
1
1
1
1
1
1
1
1
1
1
1
1
1
1
1
1
1
1
1
1
1
1
1
1
1
1
1
1
1
1
1
1
1
1
1
1
1
1
1
1
1
1
1
1
1
1
1
1
1
1
1
1
1
1
1
1
1

POINT_DATA 343
FIELD FieldData 8

NodeID_(#) 1 343 int
0
1
2
3
4
5
6
7
8
9
10
11
12
13
14
15
16
17
18
19
20
21
22
23
24
25
26
27
28
29
30
31
32
33
34
35
36
37
38
39
40
41
42
43
44
45
46
47
48
49
50
51
52
53
54
55
56
57
58
59
60
61
62
63
64
65
66
67
68
69
70
71
72
73
74
75
76
77
78
79
80
81
82
83
84
85
86
87
88
89
90
91
92
93
94
95
96
97
98
99
100
101
102
103
104
105
106
107
108
109
110
111
112
113
114
115
116
117
118
119
120
121
122
123
124
125
126
127
128
129
130
131
132
133
134
135
136
137
138
139
140
141
142
143
144
145
146
147
148
149
150
151
152
153
154
155
156
157
158
159
160
161
162
163
164
165
166
167
168
169
170
171
172
173
174
175
176
177
178
179
180
181
182
183
184
185
186
187
188
189
190
191
192
193
194
195
196
197
198
199
200
201
202
203
204
205
206
207
208
209
210
211
212
213
214
215
216
217
218
219
220
221
222
223
224
225
226
227
228
229
230
231
232
233
234
235
236
237
238
239
240
241
242
243
244
245
246
247
248
249
250
251
252
253
254
255
256
257
258
259
260
261
262
263
264
265
266
267
268
269
270
271
272
273
274
275
276
277
278
279
280
281
282
283
284
285
286
287
288
289
290
291
292
293
294
295
296
297
298
299
300
301
302
303
304
305
306
307
308
309
310
311
312
313
314
315
316
317
318
319
320
321
322
323
324
325
326
327
328
329
330
331
332
333
334
335
336
337
338
339
340
341
342

Component_(#) 1 343 int
0
0
0
0
0
0
0
0
0
0
0
0
0
0
0
0
0
0
0
0
0
0
0
0
0
0
0
0
0
0
0
0
0
0
0
0
0
0
0
0
0
0
0
0
0
0
0
0
0
0
0
0
0
0
0
0
0
0
0
0
0
0
0
0
0
0
0
0
0
0
0
0
0
0
0
0
0
0
0
0
0
0
0
0
0
0
0
0
0
0
0
0
0
0
0
0
0
0
0
0
0
0
0
0
0
0
0
0
0
0
0
0
0
0
0
0
0
0
0
0
0
0
0
0
0
0
0
0
0
0
0
0
0
0
0
0
0
0
0
0
0
0
0
0
0
0
0
0
0
0
0
0
0
0
0
0
0
0
0
0
0
0
0
0
0
0
0
0
0
0
0
0
0
0
0
0
0
0
0
0
0
0
0
0
0
0
0
0
0
0
0
0
0
0
0
0
0
0
0
0
0
0
0
0
0
0
0
0
0
0
0
0
0
0
0
0
0
0
0
0
0
0
0
0
0
0
0
0
0
0
0
0
0
0
0
0
0
0
0
0
0
0
0
0
0
0
0
0
0
0
0
0
0
0
0
0
0
0
0
0
0
0
0
0
0
0
0
0
0
0
0
0
0
0
0
0
0
0
0
0
0
0
0
0
0
0
0
0
0
0
0
0
0
0
0
0
0
0
0
0
0
0
0
0
0
0
0
0
0
0
0
0
0
0
0
0
0
0
0
0
0
0
0
0
0
0
0
0
0
0
0
0
0
0
0
0
0
0
0
0
0
0
0

NodalMass_(kg) 1 343 double
3.15563e-06
1.41304e-05
2.20912e-06
1.71484e-05
8.42e-06
9.09306e-06
1.01179e-05
7.52198e-06
6.81096e-06
5.58223e-06
3.10888e-06
1.07575e-05
4.87011e-06
1.64955e-05
3.0246e-06
8.05984e-06
6.703e-06
1.0877e-05
4.18978e-06
8.16106e-06
6.14143e-06
1.17902e-05
2.23114e-06
4.25176e-06
1.09915e-05
7.41467e-06
4.21871e-06
3.92484e-06
3.08766e-06
1.31268e-05
7.72627e-06
1.65404e-05
1.19037e-05
7.97564e-06
3.81683e-06
1.11001e-05
3.81317e-06
1.39137e-05
6.37414e-06
8.00975e-06
7.6712e-06
1.21135e-05
1.6399e-05
2.78633e-06
8.93599e-06
2.58087e-06
7.57362e-06
4.23241e-06
1.31286e-05
3.80168e-06
2.7746e-06
7.16776e-06
1.21307e-05
5.11765e-06
8.19728e-06
4.58094e-06
2.79503e-06
3.26126e-06
4.12443e-06
2.11915e-06
3.35177e-06
3.61669e-06
1.56838e-05
7.33679e-06
8.24695e-06
5.00369e-06
2.82625e-06
7.20276e-06
3.26815e-06
4.18751e-06
2.02785e-06
2.42152e-06
3.11835e-06
5.97459e-06
5.87101e-06
4.09374e-06
5.45463e-06
2.28825e-06
4.49759e-06
4.38192e-06
4.50892e-06
4.39234e-06
4.27273e-06
5.32031e-06
1.53201e-06
2.38869e-06
2.02885e-06
4.38798e-06
3.17972e-06
3.14298e-06
4.61567e-06
5.87645e-06
8.18088e-06
2.48341e-06
1.53815e-05
3.49683e-06
7.35227e-06
2.01314e-06
2.0408e-06
7.98183e-06
4.41293e-06
7.1389e-06
1.20123e-06
5.03343e-06
1.61257e-06
4.12601e-06
8.73748e-06
4.37849e-06
7.97173e-06
2.13557e-06
3.38137e-06
9.48623e-06
7.40262e-06
1.80226e-06
2.10222e-06
7.98889e-06
1.87983e-06
7.44814e-06
4.19782e-06
2.37156e-06
4.31705e-06
6.06441e-06
4.30905e-06
2.16843e-06
1.8986e-06
1.81294e-06
3.89762e-06
2.44299e-06
1.65628e-06
8.01374e-06
1.64513e-06
2.3931e-06
3.01363e-06
2.99431e-06
1.36541e-06
1.87293e-06
2.09622e-06
1.94762e-06
1.87618e-06
6.37913e-06
4.58628e-06
2.02767e-06
1.61999e-06
2.41284e-06
3.8865e-06
4.44973e-06
2.29839e-06
1.17349e-05
3.11811e-06
1.354e-06
3.45063e-06
1.81846e-06
2.9382e-06
1.37381e-06
2.41464e-06
2.10451e-06
2.63927e-06
2.14166e-06
1.7943e-06
3.19976e-06
1.36989e-06
2.43489e-06
2.08158e-06
1.3601e-06
2.17203e-06
1.89924e-06
3.16996e-06
2.6119e-06
2.37677e-06
1.60225e-06
1.90684e-06
5.49206e-06
1.87878e-06
3.14313e-06
2.97301e-06
1.18454e-06
1.89263e-06
2.04166e-06
2.73572e-06
2.42405e-06
3.23083e-06
3.19752e-06
3.2142e-06
1.94492e-06
1.61196e-06
1.86876e-06
3.22435e-06
2.1114e-06
2.96917e-06
6.15288e-06
2.3097e-06
2.39729e-06
2.38029e-06
2.64508e-06
1.66557e-06
1.82377e-06
2.06583e-06
5.73271e-06
2.08467e-06
2.18324e-06
2.43522e-06
3.1188e-06
3.17316e-06
2.05447e-06
1.9592e-06
3.05718e-06
6.44327e-06
2.08796e-06
2.72615e-06
2.15709e-06
1.86812e-06
2.0028e-06
2.10999e-06
2.88994e-06
2.3222e-06
2.3979e-06
1.97629e-06
6.4127e-06
2.16225e-06
3.29198e-06
2.10223e-06
2.66566e-06
1.94415e-06
2.91865e-06
2.58116e-06
2.11703e-06
2.09534e-06
1.91719e-06
7.06046e-06
2.25203e-06
2.06378e-06
6.28159e-06
2.12147e-06
2.90924e-06
2.12921e-06
6.4487e-06
1.41701e-06
2.0682e-06
6.58062e-06
2.52584e-06
2.39732e-06
7.42191e-07
2.22368e-06
7.06751e-07
7.00657e-07
8.93749e-07
2.53536e-06
2.26535e-06
1.33607e-06
7.84725e-07
2.32303e-06
6.06694e-07
6.68276e-07
6.84307e-07
2.51242e-06
2.31629e-06
7.8367e-07
6.80839e-07
6.22692e-06
6.7471e-07
6.65305e-07
7.01158e-07
1.8232e-06
1.90695e-06
6.86722e-07
7.04792e-07
1.86445e-06
2.28572e-06
6.8045e-07
7.16005e-07
1.82373e-06
6.01079e-07
2.02791e-06
7.4579e-07
5.74423e-07
1.80052e-06
1.454e-06
2.2702e-06
1.80636e-06
2.15356e-06
1.79089e-06
1.79456e-06
6.8231e-07
2.24737e-06
1.45239e-06
1.79556e-06
6.97875e-07
6.24265e-07
6.62717e-07
1.44627e-06
1.40138e-06
2.15258e-06
1.82851e-06
1.3994e-06
1.43932e-06
2.19226e-06
6.97732e-07
1.77726e-06
1.79162e-06
6.54258e-07
7.3397e-07
2.34895e-06
7.10392e-07
6.56982e-07
6.26314e-07
2.18926e-06
6.12493e-07
6.03901e-07
5.92831e-07
5.12031e-07
5.11667e-07
4.9467e-07
4.97016e-07
4.96269e-07
5.33079e-07
4.94191e-07
4.97855e-07
4.86862e-07
4.90626e-07
4.94649e-07
4.94954e-07
4.91922e-07
4.89615e-07
4.96354e-07
4.95189e-07
4.82188e-07
1.10854e-06
5.3299e-07
5.44763e-07
5.36655e-07
5.15417e-07
5.01772e-07
5.53774e-07
5.53774e-07
5.53774e-07
5.53774e-07
5.53774e-07
5.53774e-07
5.50785e-07
5.50785e-07
7.45291e-07
7.11668e-07
4.9897e-07

NodalForce_(N) 3 343 double
-9.36179e-08 -2.40049e-10 -7.85314e-09
-5.42941e-07 1.30513e-08 -2.04829e-07
0.00032469 3.21382e-05 0.000572656
-4.92708e-07 5.39553e-08 -1.81253e-07
1.94756e-07 2.61384e-07 -1.0587e-06
6.41846e-07 2.15454e-07 -1.26604e-06
-1.16921e-08 5.26801e-07 -3.10369e-06
-4.86583e-07 2.31183e-07 -1.47361e-06
7.78239e-07 3.54097e-07 -1.75384e-06
1.54697e-08 9.57221e-08 -6.57235e-07
5.81886e-07 1.06945e-07 -3.94244e-07
1.58634e-06 4.37031e-07 -1.80582e-06
6.82403e-07 1.94223e-07 -5.60031e-07
6.26763e-07 6.70684e-08 -2.44143e-07
5.50415e-07 7.90994e-08 -4.05278e-07
7.1124e-07 3.21651e-07 -2.16641e-06
-1.47201e-08 2.10268e-07 -1.4299e-06
5.28546e-08 3.25634e-08 -2.22845e-07
0.000801328 0.00063776 0.000303089
-7.39535e-08 -1.85186e-09 -6.17567e-08
-5.0016e-07 3.11313e-07 -1.48358e-06
3.51703e-07 8.7101e-07 -3.74927e-06
0.00174515 -0.000391764 0.000354819
-5.97435e-07 1.18775e-07 -4.49108e-07
-9.67446e-07 3.79178e-07 -1.56154e-06
-7.2441e-07 1.05638e-07 -7.06968e-07
2.94684e-09 3.11451e-09 -3.20725e-08
-2.74546e-07 1.08496e-07 -4.043e-07
-3.51926e-07 -3.38035e-09 -1.22396e-07
-5.05962e-07 -3.03187e-08 -1.73581e-07
-8.61151e-07 2.25983e-08 -7.71414e-07
2.18411e-06 1.02912e-06 -6.04737e-06
2.0097e-06 7.24388e-07 -4.27005e-06
2.70782e-07 4.93769e-07 -3.01125e-06
-4.29336e-07 3.52856e-07 -1.92499e-06
-3.92509e-07 5.66541e-07 -3.36488e-06
-4.3904e-07 2.91465e-07 -1.47663e-06
-2.89948e-06 7.39319e-07 -4.75304e-06
3.34849e-07 6.53113e-08 -3.96307e-07
9.79868e-07 1.35956e-07 -1.03038e-06
3.61417e-07 1.73542e-07 -4.95556e-07
1.06241e-06 2.82082e-07 -1.86252e-06
5.28619e-07 6.21034e-08 -2.79305e-07
5.60447e-08 2.25338e-08 -1.08051e-07
7.28562e-08 1.16912e-07 -6.46239e-07
0.00105613 8.91205e-06 -0.000341092
-8.27645e-08 1.15359e-08 -7.14401e-08
0.0003514 0.000582616 -0.000496027
4.36069e-07 1.10559e-08 -3.01834e-07
1.48357e-07 2.6882e-09 -3.03399e-08
6.32697e-07 1.43827e-07 -8.95549e-07
1.07939e-06 2.31206e-07 -1.6712e-06
-7.39051e-08 -2.54686e-08 -1.84761e-07
1.01294e-07 9.34016e-09 -2.09542e-07
7.28825e-08 1.4343e-09 -8.33452e-08
7.47458e-07 4.37332e-07 -2.41427e-06
0.00082907 -0.0002696 2.66436e-05
-1.66577e-07 -2.59171e-10 -3.10667e-08
0.00192806 -0.000595985 0.000671543
1.66137e-07 1.95571e-07 -1.10611e-06
4.2293e-07 2.66442e-08 -2.0905e-07
-7.30204e-08 4.3243e-07 -1.81048e-06
-2.23189e-06 1.23957e-06 -5.3026e-06
-3.56076e-07 5.35979e-07 -2.69882e-06
6.19032e-09 1.61214e-07 -4.64098e-07
9.79955e-09 8.31224e-09 -4.40905e-08
1.61603e-07 5.28048e-08 -9.74297e-08
1.19057e-06 2.65087e-07 -1.66258e-06
-3.07632e-07 2.88276e-07 -1.64151e-06
2.06136e-08 4.20906e-07 -1.59054e-06
-2.64147e-07 1.6802e-08 -1.37387e-07
3.07306e-07 3.68284e-08 -1.34449e-07
-2.80672e-08 4.53561e-08 -1.07558e-07
5.78012e-07 9.22004e-08 -8.24669e-07
-1.57417e-07 4.04932e-08 -2.3437e-07
0.00136194 -0.00030314 -0.000513911
-1.92566e-07 1.08903e-07 -6.21704e-07
-1.00574e-07 3.22535e-09 -1.82572e-08
8.88639e-07 1.78884e-07 -1.03539e-06
5.12084e-07 1.90117e-07 -1.02479e-06
3.70376e-07 9.05136e-08 -5.47281e-07
6.32833e-07 9.78661e-08 -5.34652e-07
-5.16463e-08 3.9594e-07 -2.19011e-06
-2.11111e-07 -1.02116e-09 -2.17901e-07
0.00120958 0.000349527 0.000230112
-1.00546e-07 -6.8019e-09 -1.01745e-08
0.00121161 -0.000152452 -0.000273008
0.00176319 -0.000249929 -0.000502181
0.00104246 0.000799303 -0.000556163
-3.27516e-07 1.03498e-08 -1.16812e-07
2.05174e-07 1.50971e-09 -4.05112e-08
2.80481e-07 1.06838e-07 -8.37662e-07
7.14473e-07 4.87429e-08 -7.02409e-07
6.65614e-07 1.61864e-07 -7.45525e-07
3.09675e-06 1.30183e-06 -5.48869e-06
-1.79789e-07 2.50295e-07 -8.78061e-07
-2.68838e-07 3.61216e-07 -1.34967e-06
-1.74317e-07 2.15507e-07 -1.00661e-06
0.00180278 0.000821637 -3.43825e-05
3.35681e-07 3.11679e-07 -1.75337e-06
-8.32686e-07 2.18391e-07 -8.79253e-07
-1.0215e-06 2.72787e-07 -1.4796e-06
-3.54977e-09 1.63943e-08 -5.73349e-08
-8.35699e-08 4.06971e-07 -1.9725e-06
-1.47794e-07 1.69075e-08 -6.60801e-08
-4.57133e-07 2.28542e-07 -8.46426e-07
-8.64485e-07 2.97263e-07 -1.79176e-06
4.45074e-07 4.44347e-07 -1.67964e-06
7.97304e-07 4.26957e-07 -1.61953e-06
8.14708e-08 4.006e-10 -1.63287e-08
-9.47031e-07 1.25975e-07 -9.98782e-07
-1.31126e-06 1.65971e-07 -1.42664e-06
-1.25495e-06 1.53692e-07 -1.51039e-06
0.00063879 0.000392734 -0.000471918
-2.38216e-07 2.49591e-07 -1.04711e-06
1.14388e-07 1.02373e-08 -1.00076e-07
-3.75219e-07 1.67526e-07 -9.53717e-07
-5.41381e-07 4.52775e-07 -2.74124e-06
-8.80907e-07 1.63535e-07 -8.96175e-07
3.6333e-07 1.85853e-07 -6.1809e-07
3.29704e-07 5.24235e-07 -2.18184e-06
4.37212e-07 4.43234e-07 -2.28373e-06
6.09692e-08 1.31587e-08 -3.31981e-08
0.00145031 0.000160645 0.000417362
4.61418e-08 1.09384e-08 -4.55827e-09
8.12657e-09 1.61704e-07 -9.26704e-07
-1.01697e-06 9.60407e-08 -8.22032e-07
0.00167869 0.000469244 -0.000798105
7.03681e-08 8.28071e-09 -1.92137e-08
-4.97684e-07 9.26743e-08 -6.27173e-07
1.31604e-07 1.3683e-07 -6.7431e-07
2.05276e-07 2.24242e-07 -1.25996e-06
7.66459e-07 1.55463e-07 -6.63487e-07
7.82313e-07 1.69543e-07 -9.70616e-07
0.00121836 -0.000160586 0.000429073
2.75536e-08 -1.28486e-09 -9.97951e-09
0.00144225 -0.000318655 0.000427612
-1.76756e-07 1.96914e-07 -7.40365e-07
-3.39969e-07 1.55999e-07 -9.43756e-07
-1.20129e-06 3.68073e-07 -2.39054e-06
1.20734e-06 3.32443e-07 -1.91534e-06
5.93439e-07 1.66927e-07 -6.8615e-07
3.1904e-07 1.73678e-07 -6.38467e-07
4.17559e-07 3.03973e-07 -1.23895e-06
0.00106443 0.000558484 -0.000780174
9.31145e-07 2.85667e-07 -9.6167e-07
-2.7466e-08 7.48701e-08 -1.89881e-07
-1.99034e-06 6.89814e-07 -3.88337e-06
-4.73488e-07 3.06575e-07 -1.55151e-06
3.31493e-08 2.95126e-08 -1.2929e-07
-1.92551e-07 3.42021e-08 -1.22347e-07
-1.98324e-08 -1.52019e-09 -3.88713e-09
0.00228373 0.000710006 -9.90803e-06
9.6933e-08 1.27955e-07 -7.06592e-07
-3.73239e-07 1.296e-07 -6.29449e-07
4.59293e-07 1.3748e-07 -7.41652e-07
0.00149313 0.000100707 -0.00068518
0.000979621 0.000832871 0.00179598
4.28406e-07 8.21316e-08 -5.40484e-07
3.85362e-07 3.42143e-07 -1.64137e-06
1.23838e-07 5.25842e-08 -1.19443e-07
1.26424e-07 1.39088e-08 -9.92678e-08
-4.63549e-07 1.56498e-07 -6.53935e-07
2.80653e-07 4.02181e-08 -3.14735e-07
3.45316e-07 2.05174e-07 -1.15209e-06
4.65559e-07 1.45809e-07 -8.15464e-07
-7.26937e-07 1.65419e-07 -8.73367e-07
-3.75348e-07 9.56308e-10 -1.85818e-07
-7.30188e-07 1.11276e-07 -7.82466e-07
-4.02238e-07 9.36868e-08 -5.14019e-07
-4.61355e-07 3.89468e-08 -3.98545e-07
-6.68967e-07 1.98622e-07 -1.40503e-06
-2.62325e-07 1.5532e-07 -5.76676e-07
3.73667e-07 3.27703e-08 -2.10903e-07
5.18798e-07 4.52113e-08 -4.28217e-07
2.10223e-07 2.29943e-08 -1.70348e-07
2.61575e-07 1.26231e-07 -6.48847e-07
1.65218e-07 4.0958e-08 -6.7031e-08
-3.36112e-07 2.48814e-07 -1.36439e-06
0.0018347 -8.66088e-05 0.000299407
6.38515e-07 3.30109e-07 -1.69297e-06
-8.93034e-07 2.29981e-07 -1.25159e-06
-6.08784e-07 3.47437e-07 -1.59403e-06
0.00140376 -0.000195748 -0.000303577
1.5294e-07 1.69066e-08 -8.58388e-08
4.57113e-07 1.73508e-07 -6.05605e-07
9.71297e-07 2.88399e-07 -1.32491e-06
6.01023e-07 1.7737e-07 -9.30709e-07
2.97436e-09 1.17986e-07 -5.00586e-07
-8.69162e-08 1.23217e-07 -8.0858e-07
-1.74723e-07 8.79105e-08 -3.72618e-07
1.20131e-07 1.35991e-07 -6.45463e-07
2.82975e-07 5.28262e-09 -1.82263e-07
-4.45393e-07 2.97805e-08 -3.02617e-07
2.50803e-08 3.10333e-08 -5.00864e-08
7.66353e-08 4.07169e-08 -7.17353e-08
-4.77314e-07 2.00814e-07 -1.03285e-06
-6.26753e-07 4.20353e-08 -4.74804e-07
-1.19534e-07 2.03219e-07 -1.0477e-06
-5.57535e-07 6.64743e-08 -5.74036e-07
-5.13424e-07 1.8384e-07 -9.54164e-07
0.00154827 -0.00033992 -0.000119454
-2.55276e-08 9.08469e-09 -2.24128e-08
0.00134038 -0.000631944 5.22277e-05
-3.79862e-07 2.5768e-08 -2.3715e-07
-4.31543e-07 7.03155e-08 -3.28806e-07
-6.53571e-07 9.57713e-08 -8.70386e-07
-5.29286e-07 9.94987e-08 -6.21632e-07
2.26919e-08 1.46622e-07 -4.19332e-07
1.86637e-07 1.20923e-07 -3.44404e-07
-4.12937e-08 6.18739e-09 -4.94399e-09
-5.22638e-07 1.66719e-07 -7.88648e-07
2.49824e-07 2.07183e-07 -1.0908e-06
-1.56498e-07 1.65587e-07 -7.85304e-07
5.4196e-07 9.57555e-08 -5.15185e-07
-9.51815e-08 1.69853e-08 -6.79196e-08
4.36759e-07 2.31238e-07 -1.03137e-06
-1.10754e-08 6.98831e-09 -1.58414e-07
-4.65641e-07 6.4775e-08 -4.56616e-07
-9.77145e-07 1.73856e-07 -1.26299e-06
1.17196e-07 7.73498e-08 -3.66958e-07
1.08543e-07 2.61112e-07 -1.35877e-06
-2.63674e-07 6.49212e-08 -3.05188e-07
1.47845e-07 2.21086e-07 -7.70833e-07
-7.56865e-08 2.49649e-08 -8.14951e-08
0.00165227 0.000286026 0.000748447
3.56704e-07 3.82041e-08 -3.20321e-07
2.70706e-07 1.04398e-07 -3.14566e-07
-2.27348e-07 3.42728e-08 -3.66073e-07
-7.20248e-08 5.30896e-08 -1.90967e-07
7.8027e-08 7.53905e-08 -1.53386e-07
1.62592e-07 3.3619e-08 -3.87341e-07
0.00202672 -0.00141121 8.79291e-05
0.00186112 0.000703791 -0.00117183
-4.37538e-07 1.52491e-08 -3.48462e-07
-4.2279e-07 9.22366e-08 -7.69571e-07
-6.8809e-08 6.80389e-08 -2.1808e-07
-5.41294e-08 1.88839e-07 -1.04742e-06
-6.85022e-08 2.50501e-08 -3.59936e-07
5.50726e-07 7.87012e-08 -5.75207e-07
-5.40456e-07 2.11262e-07 -1.20018e-06
0.000853973 0.000724594 3.67038e-05
-7.1569e-07 1.3287e-07 -9.03854e-07
-7.45396e-08 2.36557e-08 -5.76713e-08
0.000897596 -2.49894e-05 -0.000975655
1.49639e-07 3.72736e-08 -1.71243e-07
0.00208294 -0.00113088 0.00014475
-5.87991e-07 1.83654e-07 -1.1425e-06
-4.34647e-07 1.1201e-07 -6.9023e-07
0.000769184 -0.00107178 0.000137477
-4.16405e-07 6.0735e-08 -3.61922e-07
0.000766664 0.00120884 -4.60949e-05
-3.22568e-08 8.75924e-08 -3.33165e-07
1.28511e-08 7.2705e-08 -3.55119e-07
-4.60842e-07 1.44651e-08 -3.01361e-07
2.53971e-08 2.46067e-07 -1.17089e-06
-1.21194e-07 4.08838e-08 -1.2671e-07
0.000662785 -0.000166909 0.000795783
7.9357e-08 5.98729e-08 -3.67916e-07
1.54876e-07 3.06821e-08 -1.20709e-07
9.60645e-08 8.78137e-08 -3.36386e-07
0.000412669 -0.000449877 0.00103272
-5.18928e-07 1.36303e-07 -7.59162e-07
-5.40737e-07 1.66293e-07 -9.69795e-07
3.33431e-08 8.95954e-08 -3.44956e-07
-2.13325e-07 6.16857e-08 -3.61908e-07
-5.69089e-08 7.40837e-09 -1.03813e-08
0.00097917 0.000553109 1.64484e-05
0.000651092 -0.000985456 0.000201999
0.000686107 -0.000983521 0.000131772
-6.1484e-07 1.16473e-07 -7.70094e-07
-1.058e-07 5.92191e-08 -3.04751e-07
-1.68089e-07 4.74011e-08 -1.64773e-07
1.85748e-07 7.16334e-08 -4.04676e-07
0.000788863 0.000465147 0.000159628
0.000413567 0.000348294 -0.000522469
4.19832e-08 9.01551e-09 -1.22174e-08
7.47361e-08 4.47645e-09 -1.34926e-08
2.7068e-07 1.61314e-07 -8.0023e-07
7.51535e-08 8.27947e-09 -2.16723e-08
0.000620051 -0.00018906 -0.000307797
2.78767e-07 1.79514e-07 -9.62255e-07
-2.05046e-07 3.01023e-08 -1.84941e-07
-4.23032e-07 2.73214e-07 -1.11701e-06
3.18704e-08 1.67601e-09 -1.99132e-08
4.15519e-07 1.56256e-07 -8.03477e-07