# vtk DataFile Version 4.2
vtk output
ASCII
DATASET UNSTRUCTURED_GRID

POINTS 343 double
0.00161161 0.00421626 -2.06333e-05
0.00311692 0.00502404 0.00213523
0 0.00419538 0.00112517
0.00277465 0.00199116 0.00190657
0.00744709 0.00251151 0.00493912
0.00744383 0.0039324 0.00630361
0.010975 0.00492953 0.0048625
0.00896122 0.00497501 0.00358076
0.00984651 0.00342739 0.00678984
0.00717988 0.00509075 0.00490975
0.00602047 0.00120238 0.0099209
0.00760647 0.0021871 0.00780698
0.00604013 7.80596e-05 0.00824063
0.00289054 0.00204019 0.00799669
0.00616802 0.00261754 0.00991861
0.0100052 0.00658468 0.00682026
0.00922643 0.00630969 0.00506789
0.00324951 0.00222774 0.0051048
0 0.00143586 0.00417514
0.00228976 0.00349619 0.00400771
0.00985222 0.00333361 0.00304066
0.0111648 0.00237449 0.00492511
0 0.00270918 0.00154168
0.00599703 0.00151394 -7.19301e-05
0.0072185 0.00228993 0.00210879
0.00570484 0.00360534 0.00153276
0.00193526 2.44063e-05 0.00403553
0.00603652 7.86421e-05 0.00161342
0.00377275 0.00700236 -4.60939e-05
0.00277793 0.00808953 0.00190886
0.00587776 0.00632766 0.00157234
0.0115064 0.00814322 0.00784981
0.0114657 0.00497705 0.00787541
0.0120683 0.0062488 0.00579599
0.0143701 0.00901937 0.00401683
0.0108965 0.00778563 0.00482798
0.0123135 0.0101498 0.00401497
0.0114755 0.00812976 0.00187671
0.00508589 0.00310502 0.00689552
0.00638326 0.00374846 0.00824162
0.00560594 0.00167872 0.00589859
0.00718935 0.00776492 0.00758477
0.00285094 0.00804546 0.00795345
0.00405188 0.0100502 0.0070754
0.00562151 0.00847436 0.00588633
0 0.00695361 0.00262895
0.00236168 0.00627048 0.00405758
0 0.0040177 0.00850214
0.00332185 0.00502919 0.00761942
0.0020556 0.00420083 0.00997387
0.010315 0.00725869 0.00986379
0.00879736 0.0060909 0.00830407
0.00294153 0.00798035 0.00470402
0.00436904 0.00700141 0.00641266
0.00227616 0.00610833 0.00589685
0.0143653 0.00598541 0.00812678
0 0.00718191 0.00711644
0.00227356 0.00580399 -2.88789e-05
0 0.00577432 0.00158701
0.0143666 0.00735624 0.00692989
0.00412014 0.00340367 0.00994547
0.0143641 0.00162386 0.00399951
0.0115906 0.00211165 0.0018395
0.012085 0.00367497 0.00384965
0.00536731 0.00172298 0.00406048
0.00216016 0.0100277 0.00578713
0.00404852 5.25656e-05 0.00707705
0.00879305 0.00429299 0.00826261
0.0143664 0.0074504 0.00401965
0.012306 0.00015749 0.00401642
0.00481274 0.00293617 -5.80645e-05
0.00388343 0.00159116 0.00994883
0.00406379 5.30135e-05 0.00278066
0.00689869 0.00528762 0.00746587
0.00454328 0.00320765 0.00310931
0 0.00849157 0.00581511
0.00700413 0.00376645 0.00369842
0.00220899 0.00273782 -2.79693e-05
0.0083297 0.00842772 0.00988954
0.0085915 0.0101048 0.00839434
0.00604477 0.0100745 0.00823944
0.00576543 0.00857496 0.00992324
0.0143678 0.00866153 0.00563194
0.0045202 0.0068945 0.00309248
0 0.00748929 0.00137438
0.00196823 0.007515 -2.51557e-05
0 0.00287343 0.00335182
0 0.00580816 0.00831736
0 0.00429792 0.00253898
0.00364319 0.00434525 -4.44909e-05
0.00205512 0.00584567 0.00997378
0.00743892 0.00656961 0.00630575
0.00517429 0.006578 0.00816707
0.00998593 0.00275452 0.00986842
0.0115307 0.00210582 0.0078869
0.0100191 0.000129209 0.00295912
0.00865175 0.00177623 0.00350581
0.0143646 0.00305754 0.00317775
0 0.00140616 0.00256446
0.00915895 0.00834105 0.00630463
0.00836436 0.00154437 -9.94654e-05
0.00867763 0.0036634 0.00149786
0.00452673 0.010056 0.00576664
0.0123044 0.01015 0.0056769
0.00368008 0.00145417 -4.48201e-05
0.00858969 0.000111482 0.00138972
0.00902807 0.00839979 0.00350457
0.0122976 0.000157401 0.00567825
0.00891728 0.00178784 0.00625269
0.00201258 0.00258961 0.00997431
0.0102352 0.00730916 -0.00012245
0.00742555 0.00778335 0.00207654
0.00854369 0.00620139 0.00149768
0 0.00686719 0.00578184
0.0143671 0.00159485 0.00239343
0.00254424 0.00364303 0.00637546
0.0143716 0.00865655 0.00245055
0.0120918 0.00633953 0.00398342
0.00859655 0.0101056 0.00138797
0.0100148 0.000128929 0.00679999
0.0143632 0.00162304 0.00563742
0.0120683 0.00372603 0.00590817
0.00215971 2.7229e-05 0.00578794
0 0.0013659 0.00748679
0.00196008 2.47797e-05 0.00750451
0.0143655 0.00704291 0.00559812
0.00836274 0.00859582 -0.00010094
0 0.0075208 0.00859127
0.00195541 0.00751153 0.00997508
0.0060764 0.00828183 0.00355071
0.0123527 0.0101491 0.00735247
0.0143701 0.00879953 0.00733773
0.00829177 0.00169345 0.00989075
0.0104304 0.00431936 0.0098622
0 0.0057735 0.00666667
0.00196095 0.0100251 0.00750358
0 0.00863025 0.00752641
0.012347 0.000159534 0.00235759
0.014368 0.00713039 0.00245635
0.0121629 0.00649288 0.00201602
0.0122315 0.00597551 0.00983938
0.0107616 0.00151234 0.00985867
0.0123456 0.000159111 0.00735441
0.0143647 0.00155347 0.00729974
0 0.00143551 0.00581971
0.00858437 0.000110852 0.00839544
0.00604952 7.85771e-05 0.00332429
0.0114085 0.00485193 0.00189688
0.0143659 0.0044793 0.00236798
0.00606986 0.0100746 0.00658842
0.00406604 0.0100501 0.00277923
0.00188039 2.39718e-05 0.00239427
0 0.00727418 0.00419576
0.0143643 0.0059513 0.00648084
0.0100263 0.0101224 0.00295713
0.0107906 0.0087679 0.00985734
0 0.00574334 0.00336387
0 0.0043297 0.00416652
0.00986974 0.00590698 0.00986971
0.0143626 0.00320566 0.00673071
0.00606465 7.86503e-05 0.00659012
0.0035524 0.010044 0.00856536
0.0107647 0.00150573 -0.000127224
0.0082934 0.00676997 0.00989021
0.0143691 0.00769403 0.00839902
0.0123759 0.00770421 0.00983687
0.00994208 0.00315024 -0.000117755
0.00483027 0.00580587 -5.84711e-05
0.0108279 0.00876387 -0.00012894
0.0108099 0.0101316 0.00125602
0.00831319 0.00697158 -9.99027e-05
0.0100268 0.00649666 0.00290971
0.010803 0.000140567 0.00125718
0.00413606 0.00505094 0.00994542
0.00621542 0.00591155 0.00991759
0.0062141 0.0042448 0.00991778
0.0108059 0.0101302 0.00847542
0.00354928 4.57915e-05 0.00856665
0.0143656 0.00592204 0.00318985
0 0.00302218 0.00691532
0.0143644 0.00419973 0.00831037
0.0122276 0.0041736 -0.000143601
0.0143686 0.00289385 0.00137568
0 0.00244495 0.00857025
0.00350601 0.00861409 0.00995372
0.0107984 0.000139771 0.0084769
0.0121993 0.00277868 0.00983973
0.0127216 0.00435405 0.00983225
0.00814829 0.0100997 0.00572941
0.00745068 0.0076768 0.00493809
0.00810954 0.0100991 0.0041125
0.0100218 0.0101223 0.00679853
0.00433512 0.00697036 0.00994266
0.00598552 0.00440722 -7.17525e-05
0.00406715 5.26104e-05 0.00435355
0.004523 5.87938e-05 0.00576883
0.01437 0.00437751 0.000960234
0.00522454 0.00840349 0.0015228
0.0143638 0.00451044 0.00398981
0.00958612 0.00589401 -0.000114672
0.0123542 0.01015 0.00235614
0 0.00848692 0.00262374
0.00193546 0.0100251 0.00403471
0 0.00885053 0.00419359
0.0060269 0.00892591 -7.32823e-05
0.00604105 0.0100743 0.00161208
0.00718221 0.00488354 0.00229024
0.010381 0.00465358 -0.00012307
0.00810266 0.000104795 0.00411501
0.00814186 0.000105339 0.0057314
0.00188024 0.0100241 0.00239331
0.012325 0.00260403 -0.000145053
0.0143629 0.00470246 0.00703296
0.0102286 0.010125 0.00487109
0.00824779 0.00346849 0.00989094
0.00352629 4.62431e-05 0.0013124
0.0143655 0.00263033 0.00837817
0.00343447 0.00483521 0.00495615
0.00838492 0.00443753 -9.97886e-05
0.0119635 0.0059572 -0.000140584
0.00787249 0.0100964 0.00711903
0.0143624 0.00451076 0.00565132
0.00776575 0.0100952 0.00267834
0.0102217 0.000131511 0.00487273
0.00406954 0.0100503 0.00435149
0 0.00452174 0.00721958
0.0064911 0.00730102 0.0099138
0.00786604 0.000101767 0.00712017
0.00517208 0.00514037 0.00353053
0.00610627 0.0100748 0.00492977
0.00610096 7.93857e-05 0.00493232
0.00526811 0.00528397 0.0061079
0 0.005744 0.00499998
0 0.00433013 0.00583333
0.00718616 0.00583582 -8.6146e-05
0.00716145 0.00643006 0.00346374
0.00775915 0.000100524 0.00268024
0.0143641 0.00592137 0.00482
0.0052974 0.00647582 0.00477652
0.00824954 0.00510339 0.00989084
0.0143698 0.00595212 0.00142027
0 0.00666667 0
0.0123592 0.0076727 -0.000145362
0.00478586 6.30042e-05 -5.76631e-05
0 0.01 0.00666667
0.00718334 0.0100871 0.00990498
0 0.00288419 0.00499914
0.0143723 0.00766384 0.00120781
0.0143758 0.00684229 -0.000164076
0 0.005 0.01
0.00718335 0.00297728 -8.56963e-05
0 0.005 0
0.0143704 0.000192189 0.00316025
0.014377 0.0101646 0.00647993
0.00602892 0.00735065 -7.29109e-05
0.014363 0.00306848 0.00481992
0.00718428 9.44457e-05 -8.61435e-05
0 0 0.00666667
0.00545199 0.00368651 0.00515731
0.00717769 9.27115e-05 0.00990616
0.0143686 0.000191632 0.00648212
0 0 0.005
0.0126327 0.0101522 0.00106992
0.0143769 0.00894937 0.00105413
0.0143687 0.0001916 0.00482063
0.0143747 0.00518043 -0.00016292
0.00174773 0.00124256 -2.21309e-05
0 0.00122008 0.00122008
0 0.00333333 0.01
0 0.00666667 0.01
0.0126324 0.00893307 -0.000148541
0.0143784 0.0101642 0.00315777
0.00605431 0.0100742 0.00332208
0.0143731 0.00684174 0.00980282
0 0.00333333 0
0 0.00122008 0.00877992
0.00174598 2.21e-05 0.00875826
0.00174579 0.0012421 0.0099777
0.0126278 0.0101508 0.00861382
0.00174668 0.00880204 0.0099776
0 0.00877992 0.00877992
0.0143731 0.00894802 0.00858736
0.00959108 0.0101169 -0.000116102
0.0143715 0.00141009 0.00105417
0.00174711 0.0100221 0.00875758
0.0126269 0.00893095 0.00983263
0.0143718 0.00517897 0.00980342
0 0 0.00333333
0.00958352 0.000125462 -0.000114182
0.0126249 0.000164959 0.0010703
0.00173545 2.23078e-05 0.00118978
0 0.00877992 0.00122008
0.00174693 0.00880267 -2.23974e-05
0.00173508 0.0100221 0.00118889
0.0143678 0.00140857 0.00858811
0.0126215 0.00138347 0.00983372
0.00957616 0.000123838 0.00987463
0.0126272 0.00138532 -0.000148096
0.0126205 0.000163758 0.00861541
0.0143747 0.00351782 -0.000162631
0.00478454 0.0100582 0.00993654
0.00352775 0.0100437 0.00131129
0.00958369 0.0101156 0.00987357
0.0143706 0.00351575 0.00980325
0 0.01 0.005
0.00376577 0.00853489 -4.62997e-05
0.0143769 0.0101643 0.0048202
0 0.01 0.00333333
0 0.00166667 0
0.0143739 0.000192068 0.00149909
0 0.00166667 0.01
0 0.00833333 0
0.01438 0.00850516 -0.00016468
0.0143704 0.000191262 0.008144
0.0143821 0.0101661 0.00149892
0.0143786 0.0101648 0.00814229
0.00238851 0.0100292 0.00996897
0 0.01 0.00833333
0.0119933 0.0101444 -0.000142462
0.0119854 0.00015769 -0.000141636
0.0119793 0.000155804 0.00984305
0.0119868 0.0101426 0.00984176
0 0 0.00833333
0.0143765 0.00850212 0.00980376
0.00238925 3.15573e-05 -2.97352e-05
0 0 0.00166667
0.00478872 0.0100592 -5.87464e-05
0.0143716 0.00185464 0.0098045
0.0143761 0.00185673 -0.000163461
0.00238622 3.06097e-05 0.0099696
0.00238926 0.0100299 -3.0293e-05
0 0.01 0.00166667
0.014382 0.0101665 0.00980516
0 0 0.01
0.0143868 0.0101671 -0.00016596
0.0143743 0.000190087 0.00980711
0 0.01 0.01
0.0143793 0.000191813 -0.000165052
0 0.01 0
0 0 0
0.00718972 0.010088 -8.77818e-05
0.00478063 6.17332e-05 0.0099373
0 0.00833333 0.01

CELLS 343 686
1 0
1 1
1 2
1 3
1 4
1 5
1 6
1 7
1 8
1 9
1 10
1 11
1 12
1 13
1 14
1 15
1 16
1 17
1 18
1 19
1 20
1 21
1 22
1 23
1 24
1 25
1 26
1 27
1 28
1 29
1 30
1 31
1 32
1 33
1 34
1 35
1 36
1 37
1 38
1 39
1 40
1 41
1 42
1 43
1 44
1 45
1 46
1 47
1 48
1 49
1 50
1 51
1 52
1 53
1 54
1 55
1 56
1 57
1 58
1 59
1 60
1 61
1 62
1 63
1 64
1 65
1 66
1 67
1 68
1 69
1 70
1 71
1 72
1 73
1 74
1 75
1 76
1 77
1 78
1 79
1 80
1 81
1 82
1 83
1 84
1 85
1 86
1 87
1 88
1 89
1 90
1 91
1 92
1 93
1 94
1 95
1 96
1 97
1 98
1 99
1 100
1 101
1 102
1 103
1 104
1 105
1 106
1 107
1 108
1 109
1 110
1 111
1 112
1 113
1 114
1 115
1 116
1 117
1 118
1 119
1 120
1 121
1 122
1 123
1 124
1 125
1 126
1 127
1 128
1 129
1 130
1 131
1 132
1 133
1 134
1 135
1 136
1 137
1 138
1 139
1 140
1 141
1 142
1 143
1 144
1 145
1 146
1 147
1 148
1 149
1 150
1 151
1 152
1 153
1 154
1 155
1 156
1 157
1 158
1 159
1 160
1 161
1 162
1 163
1 164
1 165
1 166
1 167
1 168
1 169
1 170
1 171
1 172
1 173
1 174
1 175
1 176
1 177
1 178
1 179
1 180
1 181
1 182
1 183
1 184
1 185
1 186
1 187
1 188
1 189
1 190
1 191
1 192
1 193
1 194
1 195
1 196
1 197
1 198
1 199
1 200
1 201
1 202
1 203
1 204
1 205
1 206
1 207
1 208
1 209
1 210
1 211
1 212
1 213
1 214
1 215
1 216
1 217
1 218
1 219
1 220
1 221
1 222
1 223
1 224
1 225
1 226
1 227
1 228
1 229
1 230
1 231
1 232
1 233
1 234
1 235
1 236
1 237
1 238
1 239
1 240
1 241
1 242
1 243
1 244
1 245
1 246
1 247
1 248
1 249
1 250
1 251
1 252
1 253
1 254
1 255
1 256
1 257
1 258
1 259
1 260
1 261
1 262
1 263
1 264
1 265
1 266
1 267
1 268
1 269
1 270
1 271
1 272
1 273
1 274
1 275
1 276
1 277
1 278
1 279
1 280
1 281
1 282
1 283
1 284
1 285
1 286
1 287
1 288
1 289
1 290
1 291
1 292
1 293
1 294
1 295
1 296
1 297
1 298
1 299
1 300
1 301
1 302
1 303
1 304
1 305
1 306
1 307
1 308
1 309
1 310
1 311
1 312
1 313
1 314
1 315
1 316
1 317
1 318
1 319
1 320
1 321
1 322
1 323
1 324
1 325
1 326
1 327
1 328
1 329
1 330
1 331
1 332
1 333
1 334
1 335
1 336
1 337
1 338
1 339
1 340
1 341
1 342

CELL_TYPES 343
1
1
1
1
1
1
1
1
1
1
1
1
1
1
1
1
1
1
1
1
1
1
1
1
1
1
1
1
1
1
1
1
1
1
1
1
1
1
1
1
1
1
1
1
1
1
1
1
1
1
1
1
1
1
1
1
1
1
1
1
1
1
1
1
1
1
1
1
1
1
1
1
1
1
1
1
1
1
1
1
1
1
1
1
1
1
1
1
1
1
1
1
1
1
1
1
1
1
1
1
1
1
1
1
1
1
1
1
1
1
1
1
1
1
1
1
1
1
1
1
1
1
1
1
1
1
1
1
1
1
1
1
1
1
1
1
1
1
1
1
1
1
1
1
1
1
1
1
1
1
1
1
1
1
1
1
1
1
1
1
1
1
1
1
1
1
1
1
1
1
1
1
1
1
1
1
1
1
1
1
1
1
1
1
1
1
1
1
1
1
1
1
1
1
1
1
1
1
1
1
1
1
1
1
1
1
1
1
1
1
1
1
1
1
1
1
1
1
1
1
1
1
1
1
1
1
1
1
1
1
1
1
1
1
1
1
1
1
1
1
1
1
1
1
1
1
1
1
1
1
1
1
1
1
1
1
1
1
1
1
1
1
1
1
1
1
1
1
1
1
1
1
1
1
1
1
1
1
1
1
1
1
1
1
1
1
1
1
1
1
1
1
1
1
1
1
1
1
1
1
1
1
1
1
1
1
1
1
1
1
1
1
1
1
1
1
1
1
1
1
1
1
1
1
1
1
1
1
1
1
1
1
1
1
1
1
1
1
1
1
1
1
1

POINT_DATA 343
FIELD FieldData 8

NodeID_(#) 1 343 int
0
1
2
3
4
5
6
7
8
9
10
11
12
13
14
15
16
17
18
19
20
21
22
23
24
25
26
27
28
29
30
31
32
33
34
35
36
37
38
39
40
41
42
43
44
45
46
47
48
49
50
51
52
53
54
55
56
57
58
59
60
61
62
63
64
65
66
67
68
69
70
71
72
73
74
75
76
77
78
79
80
81
82
83
84
85
86
87
88
89
90
91
92
93
94
95
96
97
98
99
100
101
102
103
104
105
106
107
108
109
110
111
112
113
114
115
116
117
118
119
120
121
122
123
124
125
126
127
128
129
130
131
132
133
134
135
136
137
138
139
140
141
142
143
144
145
146
147
148
149
150
151
152
153
154
155
156
157
158
159
160
161
162
163
164
165
166
167
168
169
170
171
172
173
174
175
176
177
178
179
180
181
182
183
184
185
186
187
188
189
190
191
192
193
194
195
196
197
198
199
200
201
202
203
204
205
206
207
208
209
210
211
212
213
214
215
216
217
218
219
220
221
222
223
224
225
226
227
228
229
230
231
232
233
234
235
236
237
238
239
240
241
242
243
244
245
246
247
248
249
250
251
252
253
254
255
256
257
258
259
260
261
262
263
264
265
266
267
268
269
270
271
272
273
274
275
276
277
278
279
280
281
282
283
284
285
286
287
288
289
290
291
292
293
294
295
296
297
298
299
300
301
302
303
304
305
306
307
308
309
310
311
312
313
314
315
316
317
318
319
320
321
322
323
324
325
326
327
328
329
330
331
332
333
334
335
336
337
338
339
340
341
342

Component_(#) 1 343 int
0
0
0
0
0
0
0
0
0
0
0
0
0
0
0
0
0
0
0
0
0
0
0
0
0
0
0
0
0
0
0
0
0
0
0
0
0
0
0
0
0
0
0
0
0
0
0
0
0
0
0
0
0
0
0
0
0
0
0
0
0
0
0
0
0
0
0
0
0
0
0
0
0
0
0
0
0
0
0
0
0
0
0
0
0
0
0
0
0
0
0
0
0
0
0
0
0
0
0
0
0
0
0
0
0
0
0
0
0
0
0
0
0
0
0
0
0
0
0
0
0
0
0
0
0
0
0
0
0
0
0
0
0
0
0
0
0
0
0
0
0
0
0
0
0
0
0
0
0
0
0
0
0
0
0
0
0
0
0
0
0
0
0
0
0
0
0
0
0
0
0
0
0
0
0
0
0
0
0
0
0
0
0
0
0
0
0
0
0
0
0
0
0
0
0
0
0
0
0
0
0
0
0
0
0
0
0
0
0
0
0
0
0
0
0
0
0
0
0
0
0
0
0
0
0
0
0
0
0
0
0
0
0
0
0
0
0
0
0
0
0
0
0
0
0
0
0
0
0
0
0
0
0
0
0
0
0
0
0
0
0
0
0
0
0
0
0
0
0
0
0
0
0
0
0
0
0
0
0
0
0
0
0
0
0
0
0
0
0
0
0
0
0
0
0
0
0
0
0
0
0
0
0
0
0
0
0
0
0
0
0
0
0
0
0
0
0
0
0
0
0
0
0
0
0
0
0
0
0
0
0
0
0
0
0
0
0
0
0
0
0
0
0

NodalMass_(kg) 1 343 double
3.15563e-06
1.41304e-05
2.20912e-06
1.71484e-05
8.42e-06
9.09306e-06
1.01179e-05
7.52198e-06
6.81096e-06
5.58223e-06
3.10888e-06
1.07575e-05
4.87011e-06
1.64955e-05
3.0246e-06
8.05984e-06
6.703e-06
1.0877e-05
4.18978e-06
8.16106e-06
6.14143e-06
1.17902e-05
2.23114e-06
4.25176e-06
1.09915e-05
7.41467e-06
4.21871e-06
3.92484e-06
3.08766e-06
1.31268e-05
7.72627e-06
1.65404e-05
1.19037e-05
7.97564e-06
3.81683e-06
1.11001e-05
3.81317e-06
1.39137e-05
6.37414e-06
8.00975e-06
7.6712e-06
1.21135e-05
1.6399e-05
2.78633e-06
8.93599e-06
2.58087e-06
7.57362e-06
4.23241e-06
1.31286e-05
3.80168e-06
2.7746e-06
7.16776e-06
1.21307e-05
5.11765e-06
8.19728e-06
4.58094e-06
2.79503e-06
3.26126e-06
4.12443e-06
2.11915e-06
3.35177e-06
3.61669e-06
1.56838e-05
7.33679e-06
8.24695e-06
5.00369e-06
2.82625e-06
7.20276e-06
3.26815e-06
4.18751e-06
2.02785e-06
2.42152e-06
3.11835e-06
5.97459e-06
5.87101e-06
4.09374e-06
5.45463e-06
2.28825e-06
4.49759e-06
4.38192e-06
4.50892e-06
4.39234e-06
4.27273e-06
5.32031e-06
1.53201e-06
2.38869e-06
2.02885e-06
4.38798e-06
3.17972e-06
3.14298e-06
4.61567e-06
5.87645e-06
8.18088e-06
2.48341e-06
1.53815e-05
3.49683e-06
7.35227e-06
2.01314e-06
2.0408e-06
7.98183e-06
4.41293e-06
7.1389e-06
1.20123e-06
5.03343e-06
1.61257e-06
4.12601e-06
8.73748e-06
4.37849e-06
7.97173e-06
2.13557e-06
3.38137e-06
9.48623e-06
7.40262e-06
1.80226e-06
2.10222e-06
7.98889e-06
1.87983e-06
7.44814e-06
4.19782e-06
2.37156e-06
4.31705e-06
6.06441e-06
4.30905e-06
2.16843e-06
1.8986e-06
1.81294e-06
3.89762e-06
2.44299e-06
1.65628e-06
8.01374e-06
1.64513e-06
2.3931e-06
3.01363e-06
2.99431e-06
1.36541e-06
1.87293e-06
2.09622e-06
1.94762e-06
1.87618e-06
6.37913e-06
4.58628e-06
2.02767e-06
1.61999e-06
2.41284e-06
3.8865e-06
4.44973e-06
2.29839e-06
1.17349e-05
3.11811e-06
1.354e-06
3.45063e-06
1.81846e-06
2.9382e-06
1.37381e-06
2.41464e-06
2.10451e-06
2.63927e-06
2.14166e-06
1.7943e-06
3.19976e-06
1.36989e-06
2.43489e-06
2.08158e-06
1.3601e-06
2.17203e-06
1.89924e-06
3.16996e-06
2.6119e-06
2.37677e-06
1.60225e-06
1.90684e-06
5.49206e-06
1.87878e-06
3.14313e-06
2.97301e-06
1.18454e-06
1.89263e-06
2.04166e-06
2.73572e-06
2.42405e-06
3.23083e-06
3.19752e-06
3.2142e-06
1.94492e-06
1.61196e-06
1.86876e-06
3.22435e-06
2.1114e-06
2.96917e-06
6.15288e-06
2.3097e-06
2.39729e-06
2.38029e-06
2.64508e-06
1.66557e-06
1.82377e-06
2.06583e-06
5.73271e-06
2.08467e-06
2.18324e-06
2.43522e-06
3.1188e-06
3.17316e-06
2.05447e-06
1.9592e-06
3.05718e-06
6.44327e-06
2.08796e-06
2.72615e-06
2.15709e-06
1.86812e-06
2.0028e-06
2.10999e-06
2.88994e-06
2.3222e-06
2.3979e-06
1.97629e-06
6.4127e-06
2.16225e-06
3.29198e-06
2.10223e-06
2.66566e-06
1.94415e-06
2.91865e-06
2.58116e-06
2.11703e-06
2.09534e-06
1.91719e-06
7.06046e-06
2.25203e-06
2.06378e-06
6.28159e-06
2.12147e-06
2.90924e-06
2.12921e-06
6.4487e-06
1.41701e-06
2.0682e-06
6.58062e-06
2.52584e-06
2.39732e-06
7.42191e-07
2.22368e-06
7.06751e-07
7.00657e-07
8.93749e-07
2.53536e-06
2.26535e-06
1.33607e-06
7.84725e-07
2.32303e-06
6.06694e-07
6.68276e-07
6.84307e-07
2.51242e-06
2.31629e-06
7.8367e-07
6.80839e-07
6.22692e-06
6.7471e-07
6.65305e-07
7.01158e-07
1.8232e-06
1.90695e-06
6.86722e-07
7.04792e-07
1.86445e-06
2.28572e-06
6.8045e-07
7.16005e-07
1.82373e-06
6.01079e-07
2.02791e-06
7.4579e-07
5.74423e-07
1.80052e-06
1.454e-06
2.2702e-06
1.80636e-06
2.15356e-06
1.79089e-06
1.79456e-06
6.8231e-07
2.24737e-06
1.45239e-06
1.79556e-06
6.97875e-07
6.24265e-07
6.62717e-07
1.44627e-06
1.40138e-06
2.15258e-06
1.82851e-06
1.3994e-06
1.43932e-06
2.19226e-06
6.97732e-07
1.77726e-06
1.79162e-06
6.54258e-07
7.3397e-07
2.34895e-06
7.10392e-07
6.56982e-07
6.26314e-07
2.18926e-06
6.12493e-07
6.03901e-07
5.92831e-07
5.12031e-07
5.11667e-07
4.9467e-07
4.97016e-07
4.96269e-07
5.33079e-07
4.94191e-07
4.97855e-07
4.86862e-07
4.90626e-07
4.94649e-07
4.94954e-07
4.91922e-07
4.89615e-07
4.96354e-07
4.95189e-07
4.82188e-07
1.10854e-06
5.3299e-07
5.44763e-07
5.36655e-07
5.15417e-07
5.01772e-07
5.53774e-07
5.53774e-07
5.53774e-07
5.53774e-07
5.53774e-07
5.53774e-07
5.50785e-07
5.50785e-07
7.45291e-07
7.11668e-07
4.9897e-07

NodalForce_(N) 3 343 double
2.72185e-08 -4.41623e-09 1.89932e-09
1.93279e-07 -5.91608e-08 6.88919e-08
0.000265817 1.24891e-05 0.000575124
4.26662e-08 -8.19842e-08 6.66402e-08
-2.39234e-07 -3.84834e-07 3.11301e-07
-2.45021e-07 -3.44402e-07 3.43849e-07
2.41778e-08 -8.45002e-07 8.49394e-07
1.46355e-07 -4.08275e-07 4.28442e-07
-3.05721e-07 -5.02391e-07 4.59472e-07
1.21847e-08 -1.78851e-07 1.9167e-07
-2.30598e-07 -1.21449e-07 8.90314e-08
-6.84665e-07 -5.50134e-07 4.51727e-07
-3.56065e-07 -2.08335e-07 1.32261e-07
-2.97285e-07 -7.32463e-08 8.02578e-08
-1.87986e-07 -9.72407e-08 9.28608e-08
-5.64845e-09 -5.18937e-07 5.59252e-07
1.21634e-07 -3.66484e-07 3.94869e-07
-9.67444e-08 -6.58654e-08 6.91613e-08
0.000820366 0.000610622 0.000350775
4.46989e-09 -1.39325e-08 1.65969e-08
2.7115e-08 -4.61873e-07 4.30413e-07
-4.37566e-07 -1.1795e-06 1.02573e-06
0.00176793 -0.000338983 0.000378011
6.52933e-08 -1.64993e-07 1.26128e-07
1.09207e-08 -5.21025e-07 4.79554e-07
1.56515e-07 -1.70216e-07 2.13111e-07
-4.05063e-08 -8.91341e-09 1.1084e-08
-6.50009e-08 -1.60444e-07 1.27477e-07
1.28838e-07 -1.93948e-08 3.28995e-08
2.71847e-07 -2.71517e-08 5.87831e-08
3.28817e-07 -1.29561e-07 2.28708e-07
1.64816e-07 -1.45036e-06 1.51654e-06
-4.75569e-07 -1.07913e-06 1.07328e-06
8.79446e-08 -7.76267e-07 7.93047e-07
3.24799e-07 -5.13894e-07 5.13175e-07
5.27434e-07 -8.73172e-07 9.10573e-07
3.78131e-07 -4.01777e-07 3.95034e-07
1.35573e-06 -1.21928e-06 1.32909e-06
-1.50738e-07 -1.12013e-07 1.08452e-07
-3.19562e-07 -2.14223e-07 2.5666e-07
-2.74617e-07 -2.28969e-07 1.47205e-07
3.84784e-08 -4.09317e-07 4.72716e-07
-1.80992e-08 -6.47999e-08 6.57422e-08
5.45155e-08 -3.32093e-08 2.65619e-08
1.98891e-07 -1.89292e-07 1.77553e-07
0.00102639 -3.34159e-05 -0.000341549
5.07594e-08 -2.30349e-08 2.36946e-08
0.000408132 0.000561868 -0.000461666
-9.40369e-08 -5.95734e-08 8.22437e-08
-4.01918e-08 -8.3015e-09 5.32779e-09
-7.67642e-08 -1.97087e-07 2.11253e-07
-1.72299e-07 -3.5529e-07 4.12218e-07
1.21476e-07 -2.63674e-08 5.52076e-08
1.99975e-08 -4.11222e-08 5.69234e-08
1.78635e-09 -1.81283e-08 2.4253e-08
-1.12943e-07 -6.23079e-07 6.02994e-07
0.000786658 -0.000263381 1.57612e-05
5.9219e-08 -8.15939e-09 7.21369e-09
0.00192135 -0.000599949 0.000684058
3.15014e-08 -2.83541e-07 2.82387e-07
-1.21967e-07 -3.80708e-08 4.83175e-08
-1.29546e-07 -5.68741e-07 4.90064e-07
5.22568e-08 -1.70968e-06 1.52874e-06
-7.82011e-09 -7.84985e-07 7.44814e-07
-1.79536e-07 -2.29695e-07 1.52341e-07
5.05725e-08 -5.25424e-09 1.09519e-08
-1.22206e-07 -5.67202e-08 2.8212e-08
-3.42161e-07 -3.87132e-07 4.11265e-07
1.96168e-07 -4.36121e-07 4.39675e-07
-2.5315e-07 -5.43984e-07 4.40619e-07
5.78699e-08 -3.41334e-08 3.80112e-08
-1.11745e-07 -3.69444e-08 3.02588e-08
-7.3729e-08 -6.43862e-08 3.46924e-08
-1.31528e-07 -1.68198e-07 2.11784e-07
6.18223e-09 -7.48304e-08 7.5806e-08
0.00130554 -0.000320202 -0.000502284
3.74044e-09 -1.86729e-07 1.8968e-07
2.27593e-08 -3.96722e-09 3.91514e-09
-6.40508e-08 -2.2214e-07 2.37951e-07
1.04831e-07 -2.38946e-07 2.53303e-07
6.85321e-08 -1.26055e-07 1.35787e-07
-5.20878e-08 -1.14416e-07 1.15505e-07
2.3418e-07 -5.70916e-07 5.6957e-07
1.13911e-07 -4.76221e-08 7.09636e-08
0.00119406 0.000363004 0.000205209
4.32509e-08 4.46284e-10 1.78406e-09
0.00120878 -0.00012133 -0.000293939
0.00187274 -0.000231917 -0.000498604
0.00105674 0.000777072 -0.00056347
9.60455e-08 -2.47814e-08 3.1875e-08
-4.38996e-08 -7.0037e-09 7.38797e-09
2.23154e-08 -1.96276e-07 2.24959e-07
-1.08092e-07 -9.93748e-08 1.71198e-07
-2.27518e-07 -2.0111e-07 1.77335e-07
-1.30391e-06 -1.65423e-06 1.37952e-06
-1.42412e-07 -3.30219e-07 2.58978e-07
-1.66765e-07 -4.92411e-07 4.05943e-07
8.84748e-12 -2.9919e-07 2.75018e-07
0.00178496 0.000794925 -5.64217e-05
2.18684e-07 -4.56085e-07 4.59106e-07
7.5866e-08 -2.96857e-07 2.51084e-07
1.8587e-07 -4.16654e-07 4.331e-07
3.36507e-08 -1.99758e-08 1.64892e-08
3.71429e-07 -5.31044e-07 5.13858e-07
1.97267e-08 -2.53709e-08 1.843e-08
-8.15427e-08 -3.04549e-07 2.55267e-07
5.66669e-07 -4.86274e-07 5.12075e-07
-3.71279e-07 -5.66076e-07 4.47714e-07
-4.6556e-07 -5.54856e-07 4.3245e-07
-2.96537e-08 -2.15738e-09 3.29631e-09
3.57356e-07 -2.34628e-07 2.73198e-07
6.24011e-07 -3.42516e-07 4.15288e-07
4.53541e-07 -3.34209e-07 4.32535e-07
0.00069827 0.000390473 -0.000428646
-2.62157e-08 -3.32673e-07 2.89435e-07
-5.01558e-08 -2.3044e-08 3.14592e-08
1.93409e-07 -2.5246e-07 2.5806e-07
2.9405e-07 -7.31754e-07 7.49961e-07
4.66919e-07 -2.36961e-07 2.49956e-07
-2.22445e-07 -2.25481e-07 1.60527e-07
-2.60594e-07 -6.77163e-07 5.7428e-07
-1.90879e-07 -6.44097e-07 6.03924e-07
-5.98783e-08 -1.49855e-08 1.04739e-08
0.00145864 0.000183982 0.00039238
-2.95979e-08 -7.56964e-09 1.34947e-09
5.36409e-08 -2.42147e-07 2.41536e-07
4.2797e-07 -1.88014e-07 2.23931e-07
0.00167407 0.000472931 -0.00076351
-1.1473e-08 -3.42774e-09 3.36919e-09
3.44069e-07 -1.94055e-07 1.89192e-07
8.11136e-08 -1.75723e-07 1.70364e-07
7.64139e-08 -3.18225e-07 3.17562e-07
-2.91695e-07 -1.90953e-07 1.54953e-07
-2.14915e-07 -2.32824e-07 2.31109e-07
0.00112906 -0.000164286 0.000416877
9.33359e-09 -1.50668e-09 3.32792e-09
0.00146212 -0.000354044 0.00039706
-7.03182e-08 -2.57848e-07 2.12115e-07
1.46589e-07 -2.50349e-07 2.56653e-07
4.56253e-07 -6.32979e-07 6.67441e-07
-2.30356e-07 -4.64831e-07 4.60608e-07
-2.29275e-07 -2.04399e-07 1.62788e-07
-1.77186e-07 -2.14078e-07 1.61167e-07
-2.07685e-07 -3.81077e-07 3.15845e-07
0.00107954 0.000547833 -0.000753884
-4.61318e-07 -3.30189e-07 2.32574e-07
-8.09109e-08 -9.83997e-08 6.06574e-08
5.32644e-07 -1.0862e-06 1.10269e-06
1.10471e-07 -4.43803e-07 4.2496e-07
4.39737e-08 -3.99579e-08 3.32277e-08
1.47022e-07 -4.2065e-08 3.63774e-08
-9.7092e-09 -3.74687e-09 2.88868e-09
0.0023317 0.000740015 -2.70503e-05
-2.44344e-09 -1.87079e-07 1.81783e-07
2.45146e-07 -1.80023e-07 1.7574e-07
-1.5531e-08 -1.72405e-07 1.76091e-07
0.00150418 0.000133289 -0.000682595
0.000953658 0.000826365 0.00177584
-8.46922e-08 -1.164e-07 1.28513e-07
-1.62711e-07 -4.6998e-07 4.22472e-07
-8.57886e-08 -5.9625e-08 3.25055e-08
1.96872e-08 -2.37782e-08 2.38098e-08
4.14215e-08 -2.12232e-07 1.84971e-07
-4.49101e-08 -6.003e-08 7.28899e-08
-2.29497e-09 -2.89896e-07 2.84877e-07
-4.39548e-08 -1.94212e-07 1.95727e-07
1.33095e-07 -2.50532e-07 2.47038e-07
1.24345e-07 -2.70716e-08 5.17809e-08
3.08924e-07 -1.89928e-07 2.12534e-07
2.07901e-07 -1.37354e-07 1.41851e-07
1.68965e-07 -8.44363e-08 1.08943e-07
2.9182e-07 -3.61581e-07 4.02062e-07
-3.63379e-08 -2.04173e-07 1.68939e-07
-8.69074e-08 -3.04062e-08 4.77466e-08
-1.12097e-07 -6.44262e-08 9.70528e-08
-5.83822e-08 -2.92659e-08 3.92546e-08
5.47162e-08 -1.61125e-07 1.60445e-07
-9.07115e-08 -3.68331e-08 1.64103e-08
1.28653e-07 -3.7559e-07 3.70445e-07
0.00181328 -0.000112044 0.000272693
-1.85379e-07 -4.58028e-07 4.21804e-07
2.08087e-07 -3.51698e-07 3.47287e-07
7.78159e-08 -4.84364e-07 4.43006e-07
0.00139624 -0.000183249 -0.000324599
-1.61101e-08 -1.66644e-08 1.78117e-08
-2.21127e-07 -2.04332e-07 1.47191e-07
-3.28008e-07 -3.68432e-07 3.17649e-07
-1.62933e-07 -2.42106e-07 2.24005e-07
1.4908e-07 -1.51724e-07 1.33656e-07
1.83828e-07 -2.20918e-07 2.28738e-07
1.63224e-07 -1.17801e-07 1.05087e-07
1.15289e-07 -1.76829e-07 1.64692e-07
-4.86421e-08 -1.6217e-08 3.94194e-08
1.21663e-07 -6.01539e-08 8.57657e-08
-4.95326e-08 -3.68609e-08 1.81276e-08
-7.5892e-08 -4.6422e-08 2.39135e-08
1.12417e-07 -2.96783e-07 2.85441e-07
3.06058e-07 -1.06585e-07 1.3974e-07
2.48016e-08 -2.94576e-07 2.82682e-07
1.77784e-07 -1.34775e-07 1.59549e-07
3.02338e-07 -2.59639e-07 2.60439e-07
0.00151297 -0.000300685 -9.21704e-05
3.53589e-08 -5.11342e-09 5.58997e-09
0.00134007 -0.000639573 1.74478e-05
1.658e-07 -5.33535e-08 6.44537e-08
2.42343e-07 -9.39511e-08 9.36859e-08
1.87718e-07 -2.03237e-07 2.58005e-07
1.37809e-07 -1.64191e-07 1.74021e-07
-1.34146e-07 -1.86529e-07 1.2816e-07
-1.50433e-07 -1.4818e-07 9.50745e-08
2.92633e-08 -3.29576e-09 1.25136e-09
8.03362e-08 -2.38494e-07 2.20368e-07
-6.4467e-08 -2.95173e-07 2.7873e-07
2.20726e-07 -2.21737e-07 2.10658e-07
-1.68774e-07 -1.20314e-07 1.20466e-07
-2.66854e-08 -3.67554e-08 2.34512e-08
-1.66424e-07 -2.99464e-07 2.57541e-07
1.04955e-08 -3.63498e-08 4.97668e-08
1.18107e-07 -1.10626e-07 1.29253e-07
3.07024e-07 -3.21414e-07 3.45841e-07
7.30298e-08 -9.89897e-08 9.40347e-08
-3.55006e-08 -3.75523e-07 3.56494e-07
1.67627e-07 -9.19216e-08 8.62026e-08
-1.973e-07 -2.83313e-07 2.1487e-07
8.77176e-08 -3.10337e-08 2.44681e-08
0.00166192 0.000297224 0.000723092
-5.11614e-08 -5.37945e-08 7.18317e-08
-1.59023e-07 -1.2386e-07 8.01899e-08
8.37236e-08 -9.91271e-08 1.16601e-07
1.09685e-07 -6.85243e-08 5.4459e-08
-1.0286e-07 -9.10394e-08 4.97697e-08
-2.64402e-08 -8.90675e-08 1.11444e-07
0.00200574 -0.00141178 7.98822e-05
0.00191174 0.00071614 -0.00116344
1.41741e-07 -6.15711e-08 9.74199e-08
2.10436e-07 -1.95853e-07 2.33745e-07
-4.60888e-08 -9.01942e-08 6.68122e-08
4.6476e-08 -2.82575e-07 2.77876e-07
8.24466e-08 -9.03534e-08 1.0866e-07
-1.31956e-07 -1.10928e-07 1.34327e-07
1.76699e-07 -3.29675e-07 3.29508e-07
0.00081623 0.000732251 5.49567e-06
2.7071e-07 -2.25377e-07 2.44769e-07
4.54385e-10 -2.49152e-08 1.80605e-08
0.000883924 -3.26132e-06 -0.000980384
7.25662e-10 -3.89981e-08 4.00177e-08
0.00203927 -0.00115765 0.000149377
2.38312e-07 -3.00904e-07 3.12451e-07
1.49143e-07 -1.80619e-07 1.86598e-07
0.000786026 -0.00106384 0.000117201
7.67731e-08 -9.82011e-08 1.0244e-07
0.000747701 0.00119792 -6.30531e-05
-3.20415e-08 -1.1142e-07 9.17108e-08
4.52956e-08 -9.4433e-08 9.05347e-08
1.76477e-07 -5.23378e-08 8.25669e-08
-5.78645e-08 -3.41967e-07 3.12127e-07
4.24106e-10 -4.84698e-08 3.79148e-08
0.000677837 -0.000160643 0.000798852
-6.37315e-08 -1.13027e-07 1.11794e-07
-6.82764e-08 -3.97461e-08 2.59399e-08
-6.46233e-08 -1.10271e-07 8.70436e-08
0.000432872 -0.000424673 0.00103004
2.62125e-07 -2.01866e-07 2.06761e-07
2.44685e-07 -2.57236e-07 2.63777e-07
-5.00374e-08 -1.13779e-07 9.22978e-08
5.90809e-08 -9.90135e-08 9.85671e-08
8.10451e-09 -7.68489e-09 2.21063e-09
0.000990266 0.000516971 5.35244e-05
0.000674677 -0.0009946 0.000176749
0.000718781 -0.000981112 9.96915e-05
2.5903e-07 -1.94769e-07 2.07283e-07
6.98489e-08 -8.29274e-08 8.15204e-08
1.27733e-07 -6.19604e-08 4.81228e-08
-2.62877e-08 -1.00143e-07 9.8369e-08
0.000763213 0.000486892 0.00013578
0.000412345 0.00035219 -0.000525109
-2.32958e-08 -7.07488e-09 1.71081e-09
-3.09208e-08 -5.35073e-09 3.16345e-09
5.76927e-08 -2.02185e-07 1.98179e-07
-8.29059e-09 -5.55252e-09 3.64271e-09
0.000630622 -0.000216919 -0.000295348
2.96946e-08 -2.41858e-07 2.37699e-07
9.51669e-08 -4.72434e-08 4.92216e-08
9.09208e-09 -3.61664e-07 3.1271e-07
3.36984e-09 -2.76834e-09 6.2491e-09
-6.59699e-09 -1.96598e-07 1.93838e-07
-4.37928e-08 -9.7481e-08 9.13918e-08
0.000390177 -0.000414475 0.000773496