# vtk DataFile Version 4.2
vtk output
ASCII
DATASET UNSTRUCTURED_GRID

POINTS 343 double
0.00160645 0.00421592 -2.03725e-05
0.00310693 0.00502331 0.00213588
0 0.00419538 0.00112517
0.00276532 0.00199047 0.00190713
0.00741802 0.00250742 0.00494171
0.00741503 0.00392905 0.006307
0.0109306 0.00492334 0.00486759
0.0089272 0.00497068 0.00358352
0.00980558 0.00342156 0.00679558
0.00715356 0.0050879 0.00491215
0.00599437 0.00119905 0.0099245
0.00757496 0.00218274 0.00781126
0.00601421 7.42992e-05 0.00824369
0.00288007 0.00203946 0.00799734
0.00614205 0.00261458 0.00992236
0.00996549 0.00658017 0.00682624
0.0091913 0.00630567 0.00507175
0.00323809 0.00222682 0.00510557
0 0.00143586 0.00417514
0.00228212 0.00349569 0.00400815
0.00981291 0.00332756 0.00304361
0.0111175 0.00236661 0.00493044
0 0.00270918 0.00154168
0.00597417 0.00151051 -7.1053e-05
0.00719086 0.00228584 0.00211049
0.00568446 0.00360308 0.00153391
0.00192829 2.39506e-05 0.00403596
0.00601255 7.48432e-05 0.00161478
0.00376058 0.00700137 -4.56319e-05
0.00276941 0.00808892 0.00190943
0.00585775 0.00632585 0.00157351
0.0114593 0.00813812 0.00785814
0.0114169 0.00497056 0.00788371
0.0120182 0.00624238 0.00580277
0.0143087 0.00901232 0.00402383
0.0108541 0.00778085 0.00483289
0.012265 0.0101453 0.00402033
0.0114314 0.00812471 0.00187987
0.00506686 0.00310319 0.00689723
0.006358 0.00374588 0.00824507
0.00558431 0.0016759 0.00590041
0.00716267 0.00776232 0.00758857
0.00284153 0.00804471 0.00795409
0.00403857 0.0100493 0.00707649
0.00560247 0.00847262 0.00588811
0 0.00695361 0.00262895
0.00235407 0.00626994 0.00405803
0 0.0040177 0.00850214
0.00331043 0.00502843 0.00762022
0.00204827 0.0042004 0.00997432
0.0102717 0.00725417 0.0098721
0.00876215 0.00608715 0.00830989
0.00293217 0.00797966 0.00470463
0.00435422 0.0070002 0.00641372
0.00226862 0.00610783 0.00589733
0.0142999 0.00597667 0.00813804
0 0.00718191 0.00711644
0.00226642 0.00580346 -2.85323e-05
0 0.00577432 0.00158701
0.0143027 0.00734845 0.00694011
0.0041036 0.00340235 0.00994754
0.0142978 0.00161182 0.00400653
0.0115421 0.00210301 0.00184267
0.0120341 0.00366701 0.00385471
0.00534713 0.00172031 0.00406196
0.00215354 0.0100274 0.00578755
0.00403222 5.05637e-05 0.00707816
0.00875686 0.00428863 0.00826833
0.0143043 0.00744299 0.0040267
0.0122509 0.000146588 0.00402187
0.00479564 0.00293436 -5.74443e-05
0.00386724 0.0015896 0.00995072
0.00404806 5.08779e-05 0.00278166
0.00687229 0.00528499 0.00746943
0.00452735 0.00320617 0.00311047
0 0.00849157 0.00581511
0.00697814 0.00376332 0.00370043
0.00220173 0.00273739 -2.76491e-05
0.00829622 0.00842449 0.00989584
0.00855851 0.010102 0.00840023
0.00602293 0.0100726 0.00824264
0.00574332 0.00857292 0.00992678
0.0143054 0.00865434 0.00564072
0.00450533 0.00689324 0.00309362
0 0.00748929 0.00137438
0.00196223 0.00751462 -2.48581e-05
0 0.00287343 0.00335182
0 0.00580816 0.00831736
0 0.00429792 0.00253898
0.00363108 0.00434424 -4.40454e-05
0.00204787 0.00584522 0.00997425
0.00741145 0.00656682 0.00630905
0.00515523 0.00657649 0.00816949
0.00994142 0.00274801 0.00987613
0.0114794 0.00209735 0.00789515
0.00997639 0.000121217 0.00296217
0.00861692 0.00177056 0.00350843
0.0142997 0.00304658 0.00318392
0 0.00140616 0.00256446
0.00912433 0.00833739 0.00630936
0.00833102 0.0015387 -9.8092e-05
0.00864427 0.00365857 0.00149975
0.00451197 0.0100548 0.00576799
0.012255 0.0101454 0.00568381
0.00366674 0.00145256 -4.43387e-05
0.00855408 0.000104959 0.00139172
0.00899525 0.00839626 0.0035074
0.0122417 0.00014657 0.00568533
0.00888008 0.00178201 0.00625723
0.00200522 0.00258925 0.00997476
0.010197 0.00730472 -0.000120564
0.00739996 0.00778065 0.00207817
0.00851261 0.00619788 0.00149947
0 0.00686719 0.00578184
0.0143013 0.00158268 0.00239897
0.0025355 0.00364247 0.00637601
0.0143106 0.00864938 0.00245612
0.0120426 0.00633303 0.00398859
0.00856657 0.0101028 0.00138974
0.00997028 0.000120853 0.00680597
0.014296 0.00161111 0.00564639
0.0120163 0.00371806 0.00591524
0.00215177 2.66821e-05 0.00578838
0 0.0013659 0.00748679
0.00195279 2.42289e-05 0.00750479
0.0143024 0.00703513 0.00560674
0.00833355 0.00859275 -9.97507e-05
0 0.0075208 0.00859127
0.00194864 0.00751103 0.00997557
0.00605621 0.0082799 0.00355223
0.012302 0.0101443 0.0073612
0.0143066 0.00879246 0.00734836
0.00825495 0.00168818 0.00989674
0.0103848 0.0043134 0.00987047
0 0.0057735 0.00666667
0.00195478 0.0100248 0.00750393
0 0.00863025 0.00752641
0.0122923 0.000148497 0.00236175
0.0143063 0.00712284 0.00246193
0.0121143 0.00648655 0.00201963
0.0121778 0.00596877 0.00984979
0.0107122 0.00150447 0.00986728
0.0122883 0.000148192 0.00736298
0.0142964 0.00154144 0.00731029
0 0.00143551 0.00581971
0.00854606 0.000104457 0.00840101
0.0060253 7.46262e-05 0.0033258
0.0113629 0.0048453 0.00189995
0.0143024 0.00446928 0.00237321
0.00604895 0.0100729 0.00659087
0.00405342 0.0100492 0.00278015
0.00187374 2.34907e-05 0.00239468
0 0.00727418 0.00419576
0.0142999 0.00594239 0.00649054
0.00998931 0.010119 0.00296015
0.0107456 0.00876319 0.00986626
0 0.00574334 0.00336387
0 0.0043297 0.00416652
0.00982787 0.00590221 0.00987757
0.014296 0.00319477 0.00674077
0.00603947 7.4731e-05 0.00659261
0.00354036 0.0100432 0.00856669
0.0107199 0.00149754 -0.000125043
0.00825951 0.00676658 0.0098964
0.0143044 0.00768631 0.00841053
0.0123223 0.00769814 0.00984754
0.00990266 0.00314383 -0.000115828
0.00481409 0.00580452 -5.78112e-05
0.0107875 0.00875944 -0.000126818
0.0107697 0.0101278 0.00125872
0.00828357 0.00696828 -9.86584e-05
0.00998868 0.00649215 0.00291272
0.0107567 0.00013146 0.00125992
0.00411991 0.00504972 0.00994753
0.00619052 0.0059093 0.00992165
0.00618863 0.00424234 0.00992177
0.0107624 0.0101262 0.00848364
0.0035347 4.40091e-05 0.00856782
0.014303 0.0059129 0.00319593
0 0.00302218 0.00691532
0.0142976 0.00418954 0.00832174
0.0121774 0.0041655 -0.000141131
0.0143042 0.00288271 0.0013801
0 0.00244495 0.00857025
0.00349304 0.00861306 0.00995543
0.0107488 0.000130794 0.0084848
0.0121433 0.00276991 0.00985
0.0126638 0.00434574 0.00984316
0.00811906 0.0100971 0.00573311
0.00742415 0.00767407 0.00494076
0.00808116 0.0100965 0.00411513
0.00998319 0.0101187 0.00680453
0.00431852 0.00696916 0.009945
0.00596443 0.00440498 -7.08717e-05
0.00405134 5.04992e-05 0.00435459
0.00450501 5.63488e-05 0.00577016
0.0143068 0.0043674 0.000964344
0.0052075 0.00840189 0.00152385
0.0142998 0.00450058 0.00399699
0.00955024 0.00588946 -0.000113002
0.012306 0.0101454 0.0023603
0 0.00848692 0.00262374
0.00192953 0.0100247 0.00403508
0 0.00885053 0.00419359
0.00600705 0.00892398 -7.24369e-05
0.00602151 0.0100726 0.00161329
0.00715637 0.00488066 0.00229182
0.0103405 0.00464769 -0.000121112
0.00806905 9.88446e-05 0.00411759
0.00810742 9.93761e-05 0.00573501
0.00187459 0.0100238 0.00239366
0.012273 0.00259487 -0.000142534
0.0142973 0.00469273 0.00704335
0.0101899 0.0101214 0.00487565
0.00821248 0.00346416 0.00989684
0.00351287 4.44638e-05 0.0013131
0.0142973 0.00261901 0.00838962
0.00342287 0.00483435 0.00495696
0.00835345 0.00443328 -9.83661e-05
0.0119159 0.00595082 -0.000138118
0.00784369 0.0100938 0.00712315
0.0142975 0.00450092 0.00566017
0.0077392 0.0100927 0.00268026
0.0101772 0.000123206 0.00487724
0.00405674 0.0100494 0.00435242
0 0.00452174 0.00721958
0.00646551 0.00729881 0.00991814
0.00783216 9.61344e-05 0.00712431
0.0051544 0.00513877 0.00353182
0.00608602 0.0100731 0.00493167
0.00607625 7.53109e-05 0.00493425
0.00524951 0.00528233 0.00610949
0 0.005744 0.00499998
0 0.00433013 0.00583333
0.00716073 0.00583317 -8.5059e-05
0.0071362 0.00642743 0.00346566
0.00772732 9.49152e-05 0.0026823
0.0143007 0.00591217 0.00482799
0.00527941 0.00647422 0.0047779
0.00821517 0.00509969 0.00989685
0.0143076 0.0059431 0.00142464
0 0.00666667 0
0.0123103 0.00766673 -0.000142784
0.00476724 5.97753e-05 -5.66029e-05
0 0.01 0.00666667
0.00715526 0.0100849 0.00991001
0 0.00288419 0.00499914
0.0143112 0.00765657 0.00121196
0.0143145 0.00683405 -0.000160511
0 0.005 0.01
0.00715628 0.00297348 -8.45814e-05
0 0.005 0
0.0143028 0.000178188 0.00316647
0.0143144 0.010159 0.00648975
0.00600863 0.00734873 -7.2085e-05
0.0142974 0.00305738 0.00482793
0.0071552 8.88915e-05 -8.45672e-05
0 0 0.00666667
0.00543237 0.00368457 0.00515886
0.00714516 8.76917e-05 0.00991085
0.0142993 0.000177791 0.00649194
0 0 0.005
0.0125831 0.0101475 0.00107324
0.0143164 0.00894253 0.00105825
0.0143004 0.000177713 0.00482873
0.0143122 0.00517094 -0.000159491
0.00174186 0.00124208 -2.18647e-05
0 0.00122008 0.00122008
0 0.00333333 0.01
0 0.00666667 0.01
0.0125825 0.00892761 -0.000145882
0.0143175 0.0101586 0.0031641
0.00603465 0.0100725 0.00332351
0.0143068 0.00683352 0.00981589
0 0.00333333 0
0 0.00122008 0.00877992
0.00173936 2.1526e-05 0.00875859
0.00173934 0.00124169 0.00997811
0.0125746 0.0101458 0.00862404
0.00174076 0.0088016 0.00997803
0 0.00877992 0.00877992
0.014309 0.00894101 0.00859914
0.00955686 0.0101138 -0.000114273
0.014306 0.0013976 0.00105843
0.00174145 0.0100218 0.00875809
0.0125724 0.0089252 0.00984368
0.0143044 0.00516955 0.00981642
0 0 0.00333333
0.00954335 0.000117316 -0.000111917
0.0125688 0.000153426 0.0010737
0.00172929 2.1753e-05 0.00119022
0 0.00877992 0.00122008
0.0017417 0.00880232 -2.21119e-05
0.00172991 0.0100218 0.0011892
0.0142984 0.00139637 0.00859978
0.0125619 0.0013733 0.00984447
0.00953168 0.00011625 0.00988183
0.0125725 0.00137474 -0.000145411
0.0125608 0.000152507 0.00862536
0.014311 0.00350707 -0.00015924
0.00476676 0.0100569 0.00993932
0.00351705 0.0100429 0.00131194
0.00954494 0.0101122 0.00988116
0.0143019 0.00350497 0.00981613
0 0.01 0.005
0.00375396 0.00853397 -4.57834e-05
0.0143152 0.0101587 0.00482799
0 0.01 0.00333333
0 0.00166667 0
0.0143069 0.000178084 0.00150381
0 0.00166667 0.01
0 0.00833333 0
0.0143194 0.00849822 -0.000161442
0.0143001 0.000177551 0.00815532
0.0143218 0.0101605 0.0015035
0.014315 0.010159 0.0081538
0.00238032 0.0100288 0.00996987
0 0.01 0.00833333
0.0119473 0.0101403 -0.000139753
0.011933 0.000146649 -0.000138789
0.0119222 0.000145321 0.00985295
0.0119361 0.0101379 0.00985204
0 0 0.00833333
0.0143111 0.00849477 0.00981685
0.0023804 3.02887e-05 -2.91879e-05
0 0 0.00166667
0.00477371 0.0100579 -5.80632e-05
0.0143017 0.00184281 0.00981734
0.0143111 0.0018446 -0.000159999
0.00237654 2.96099e-05 0.00997043
0.00238216 0.0100295 -2.98961e-05
0 0.01 0.00166667
0.0143174 0.0101605 0.00981817
0 0 0.01
0.014327 0.0101614 -0.000162537
0.014303 0.000176535 0.00981978
0 0.01 0.01
0.0143129 0.000177602 -0.000161336
0 0.01 0
0 0 0
0.00716565 0.0100859 -8.67015e-05
0.00475954 5.91121e-05 0.0099399
0 0.00833333 0.01

CELLS 343 686
1 0
1 1
1 2
1 3
1 4
1 5
1 6
1 7
1 8
1 9
1 10
1 11
1 12
1 13
1 14
1 15
1 16
1 17
1 18
1 19
1 20
1 21
1 22
1 23
1 24
1 25
1 26
1 27
1 28
1 29
1 30
1 31
1 32
1 33
1 34
1 35
1 36
1 37
1 38
1 39
1 40
1 41
1 42
1 43
1 44
1 45
1 46
1 47
1 48
1 49
1 50
1 51
1 52
1 53
1 54
1 55
1 56
1 57
1 58
1 59
1 60
1 61
1 62
1 63
1 64
1 65
1 66
1 67
1 68
1 69
1 70
1 71
1 72
1 73
1 74
1 75
1 76
1 77
1 78
1 79
1 80
1 81
1 82
1 83
1 84
1 85
1 86
1 87
1 88
1 89
1 90
1 91
1 92
1 93
1 94
1 95
1 96
1 97
1 98
1 99
1 100
1 101
1 102
1 103
1 104
1 105
1 106
1 107
1 108
1 109
1 110
1 111
1 112
1 113
1 114
1 115
1 116
1 117
1 118
1 119
1 120
1 121
1 122
1 123
1 124
1 125
1 126
1 127
1 128
1 129
1 130
1 131
1 132
1 133
1 134
1 135
1 136
1 137
1 138
1 139
1 140
1 141
1 142
1 143
1 144
1 145
1 146
1 147
1 148
1 149
1 150
1 151
1 152
1 153
1 154
1 155
1 156
1 157
1 158
1 159
1 160
1 161
1 162
1 163
1 164
1 165
1 166
1 167
1 168
1 169
1 170
1 171
1 172
1 173
1 174
1 175
1 176
1 177
1 178
1 179
1 180
1 181
1 182
1 183
1 184
1 185
1 186
1 187
1 188
1 189
1 190
1 191
1 192
1 193
1 194
1 195
1 196
1 197
1 198
1 199
1 200
1 201
1 202
1 203
1 204
1 205
1 206
1 207
1 208
1 209
1 210
1 211
1 212
1 213
1 214
1 215
1 216
1 217
1 218
1 219
1 220
1 221
1 222
1 223
1 224
1 225
1 226
1 227
1 228
1 229
1 230
1 231
1 232
1 233
1 234
1 235
1 236
1 237
1 238
1 239
1 240
1 241
1 242
1 243
1 244
1 245
1 246
1 247
1 248
1 249
1 250
1 251
1 252
1 253
1 254
1 255
1 256
1 257
1 258
1 259
1 260
1 261
1 262
1 263
1 264
1 265
1 266
1 267
1 268
1 269
1 270
1 271
1 272
1 273
1 274
1 275
1 276
1 277
1 278
1 279
1 280
1 281
1 282
1 283
1 284
1 285
1 286
1 287
1 288
1 289
1 290
1 291
1 292
1 293
1 294
1 295
1 296
1 297
1 298
1 299
1 300
1 301
1 302
1 303
1 304
1 305
1 306
1 307
1 308
1 309
1 310
1 311
1 312
1 313
1 314
1 315
1 316
1 317
1 318
1 319
1 320
1 321
1 322
1 323
1 324
1 325
1 326
1 327
1 328
1 329
1 330
1 331
1 332
1 333
1 334
1 335
1 336
1 337
1 338
1 339
1 340
1 341
1 342

CELL_TYPES 343
1
1
1
1
1
1
1
1
1
1
1
1
1
1
1
1
1
1
1
1
1
1
1
1
1
1
1
1
1
1
1
1
1
1
1
1
1
1
1
1
1
1
1
1
1
1
1
1
1
1
1
1
1
1
1
1
1
1
1
1
1
1
1
1
1
1
1
1
1
1
1
1
1
1
1
1
1
1
1
1
1
1
1
1
1
1
1
1
1
1
1
1
1
1
1
1
1
1
1
1
1
1
1
1
1
1
1
1
1
1
1
1
1
1
1
1
1
1
1
1
1
1
1
1
1
1
1
1
1
1
1
1
1
1
1
1
1
1
1
1
1
1
1
1
1
1
1
1
1
1
1
1
1
1
1
1
1
1
1
1
1
1
1
1
1
1
1
1
1
1
1
1
1
1
1
1
1
1
1
1
1
1
1
1
1
1
1
1
1
1
1
1
1
1
1
1
1
1
1
1
1
1
1
1
1
1
1
1
1
1
1
1
1
1
1
1
1
1
1
1
1
1
1
1
1
1
1
1
1
1
1
1
1
1
1
1
1
1
1
1
1
1
1
1
1
1
1
1
1
1
1
1
1
1
1
1
1
1
1
1
1
1
1
1
1
1
1
1
1
1
1
1
1
1
1
1
1
1
1
1
1
1
1
1
1
1
1
1
1
1
1
1
1
1
1
1
1
1
1
1
1
1
1
1
1
1
1
1
1
1
1
1
1
1
1
1
1
1
1
1
1
1
1
1
1
1
1
1
1
1
1
1
1
1
1
1
1
1
1
1
1
1
1

POINT_DATA 343
FIELD FieldData 8

NodeID_(#) 1 343 int
0
1
2
3
4
5
6
7
8
9
10
11
12
13
14
15
16
17
18
19
20
21
22
23
24
25
26
27
28
29
30
31
32
33
34
35
36
37
38
39
40
41
42
43
44
45
46
47
48
49
50
51
52
53
54
55
56
57
58
59
60
61
62
63
64
65
66
67
68
69
70
71
72
73
74
75
76
77
78
79
80
81
82
83
84
85
86
87
88
89
90
91
92
93
94
95
96
97
98
99
100
101
102
103
104
105
106
107
108
109
110
111
112
113
114
115
116
117
118
119
120
121
122
123
124
125
126
127
128
129
130
131
132
133
134
135
136
137
138
139
140
141
142
143
144
145
146
147
148
149
150
151
152
153
154
155
156
157
158
159
160
161
162
163
164
165
166
167
168
169
170
171
172
173
174
175
176
177
178
179
180
181
182
183
184
185
186
187
188
189
190
191
192
193
194
195
196
197
198
199
200
201
202
203
204
205
206
207
208
209
210
211
212
213
214
215
216
217
218
219
220
221
222
223
224
225
226
227
228
229
230
231
232
233
234
235
236
237
238
239
240
241
242
243
244
245
246
247
248
249
250
251
252
253
254
255
256
257
258
259
260
261
262
263
264
265
266
267
268
269
270
271
272
273
274
275
276
277
278
279
280
281
282
283
284
285
286
287
288
289
290
291
292
293
294
295
296
297
298
299
300
301
302
303
304
305
306
307
308
309
310
311
312
313
314
315
316
317
318
319
320
321
322
323
324
325
326
327
328
329
330
331
332
333
334
335
336
337
338
339
340
341
342

Component_(#) 1 343 int
0
0
0
0
0
0
0
0
0
0
0
0
0
0
0
0
0
0
0
0
0
0
0
0
0
0
0
0
0
0
0
0
0
0
0
0
0
0
0
0
0
0
0
0
0
0
0
0
0
0
0
0
0
0
0
0
0
0
0
0
0
0
0
0
0
0
0
0
0
0
0
0
0
0
0
0
0
0
0
0
0
0
0
0
0
0
0
0
0
0
0
0
0
0
0
0
0
0
0
0
0
0
0
0
0
0
0
0
0
0
0
0
0
0
0
0
0
0
0
0
0
0
0
0
0
0
0
0
0
0
0
0
0
0
0
0
0
0
0
0
0
0
0
0
0
0
0
0
0
0
0
0
0
0
0
0
0
0
0
0
0
0
0
0
0
0
0
0
0
0
0
0
0
0
0
0
0
0
0
0
0
0
0
0
0
0
0
0
0
0
0
0
0
0
0
0
0
0
0
0
0
0
0
0
0
0
0
0
0
0
0
0
0
0
0
0
0
0
0
0
0
0
0
0
0
0
0
0
0
0
0
0
0
0
0
0
0
0
0
0
0
0
0
0
0
0
0
0
0
0
0
0
0
0
0
0
0
0
0
0
0
0
0
0
0
0
0
0
0
0
0
0
0
0
0
0
0
0
0
0
0
0
0
0
0
0
0
0
0
0
0
0
0
0
0
0
0
0
0
0
0
0
0
0
0
0
0
0
0
0
0
0
0
0
0
0
0
0
0
0
0
0
0
0
0
0
0
0
0
0
0
0
0
0
0
0
0
0
0
0
0
0
0

NodalMass_(kg) 1 343 double
3.15563e-06
1.41304e-05
2.20912e-06
1.71484e-05
8.42e-06
9.09306e-06
1.01179e-05
7.52198e-06
6.81096e-06
5.58223e-06
3.10888e-06
1.07575e-05
4.87011e-06
1.64955e-05
3.0246e-06
8.05984e-06
6.703e-06
1.0877e-05
4.18978e-06
8.16106e-06
6.14143e-06
1.17902e-05
2.23114e-06
4.25176e-06
1.09915e-05
7.41467e-06
4.21871e-06
3.92484e-06
3.08766e-06
1.31268e-05
7.72627e-06
1.65404e-05
1.19037e-05
7.97564e-06
3.81683e-06
1.11001e-05
3.81317e-06
1.39137e-05
6.37414e-06
8.00975e-06
7.6712e-06
1.21135e-05
1.6399e-05
2.78633e-06
8.93599e-06
2.58087e-06
7.57362e-06
4.23241e-06
1.31286e-05
3.80168e-06
2.7746e-06
7.16776e-06
1.21307e-05
5.11765e-06
8.19728e-06
4.58094e-06
2.79503e-06
3.26126e-06
4.12443e-06
2.11915e-06
3.35177e-06
3.61669e-06
1.56838e-05
7.33679e-06
8.24695e-06
5.00369e-06
2.82625e-06
7.20276e-06
3.26815e-06
4.18751e-06
2.02785e-06
2.42152e-06
3.11835e-06
5.97459e-06
5.87101e-06
4.09374e-06
5.45463e-06
2.28825e-06
4.49759e-06
4.38192e-06
4.50892e-06
4.39234e-06
4.27273e-06
5.32031e-06
1.53201e-06
2.38869e-06
2.02885e-06
4.38798e-06
3.17972e-06
3.14298e-06
4.61567e-06
5.87645e-06
8.18088e-06
2.48341e-06
1.53815e-05
3.49683e-06
7.35227e-06
2.01314e-06
2.0408e-06
7.98183e-06
4.41293e-06
7.1389e-06
1.20123e-06
5.03343e-06
1.61257e-06
4.12601e-06
8.73748e-06
4.37849e-06
7.97173e-06
2.13557e-06
3.38137e-06
9.48623e-06
7.40262e-06
1.80226e-06
2.10222e-06
7.98889e-06
1.87983e-06
7.44814e-06
4.19782e-06
2.37156e-06
4.31705e-06
6.06441e-06
4.30905e-06
2.16843e-06
1.8986e-06
1.81294e-06
3.89762e-06
2.44299e-06
1.65628e-06
8.01374e-06
1.64513e-06
2.3931e-06
3.01363e-06
2.99431e-06
1.36541e-06
1.87293e-06
2.09622e-06
1.94762e-06
1.87618e-06
6.37913e-06
4.58628e-06
2.02767e-06
1.61999e-06
2.41284e-06
3.8865e-06
4.44973e-06
2.29839e-06
1.17349e-05
3.11811e-06
1.354e-06
3.45063e-06
1.81846e-06
2.9382e-06
1.37381e-06
2.41464e-06
2.10451e-06
2.63927e-06
2.14166e-06
1.7943e-06
3.19976e-06
1.36989e-06
2.43489e-06
2.08158e-06
1.3601e-06
2.17203e-06
1.89924e-06
3.16996e-06
2.6119e-06
2.37677e-06
1.60225e-06
1.90684e-06
5.49206e-06
1.87878e-06
3.14313e-06
2.97301e-06
1.18454e-06
1.89263e-06
2.04166e-06
2.73572e-06
2.42405e-06
3.23083e-06
3.19752e-06
3.2142e-06
1.94492e-06
1.61196e-06
1.86876e-06
3.22435e-06
2.1114e-06
2.96917e-06
6.15288e-06
2.3097e-06
2.39729e-06
2.38029e-06
2.64508e-06
1.66557e-06
1.82377e-06
2.06583e-06
5.73271e-06
2.08467e-06
2.18324e-06
2.43522e-06
3.1188e-06
3.17316e-06
2.05447e-06
1.9592e-06
3.05718e-06
6.44327e-06
2.08796e-06
2.72615e-06
2.15709e-06
1.86812e-06
2.0028e-06
2.10999e-06
2.88994e-06
2.3222e-06
2.3979e-06
1.97629e-06
6.4127e-06
2.16225e-06
3.29198e-06
2.10223e-06
2.66566e-06
1.94415e-06
2.91865e-06
2.58116e-06
2.11703e-06
2.09534e-06
1.91719e-06
7.06046e-06
2.25203e-06
2.06378e-06
6.28159e-06
2.12147e-06
2.90924e-06
2.12921e-06
6.4487e-06
1.41701e-06
2.0682e-06
6.58062e-06
2.52584e-06
2.39732e-06
7.42191e-07
2.22368e-06
7.06751e-07
7.00657e-07
8.93749e-07
2.53536e-06
2.26535e-06
1.33607e-06
7.84725e-07
2.32303e-06
6.06694e-07
6.68276e-07
6.84307e-07
2.51242e-06
2.31629e-06
7.8367e-07
6.80839e-07
6.22692e-06
6.7471e-07
6.65305e-07
7.01158e-07
1.8232e-06
1.90695e-06
6.86722e-07
7.04792e-07
1.86445e-06
2.28572e-06
6.8045e-07
7.16005e-07
1.82373e-06
6.01079e-07
2.02791e-06
7.4579e-07
5.74423e-07
1.80052e-06
1.454e-06
2.2702e-06
1.80636e-06
2.15356e-06
1.79089e-06
1.79456e-06
6.8231e-07
2.24737e-06
1.45239e-06
1.79556e-06
6.97875e-07
6.24265e-07
6.62717e-07
1.44627e-06
1.40138e-06
2.15258e-06
1.82851e-06
1.3994e-06
1.43932e-06
2.19226e-06
6.97732e-07
1.77726e-06
1.79162e-06
6.54258e-07
7.3397e-07
2.34895e-06
7.10392e-07
6.56982e-07
6.26314e-07
2.18926e-06
6.12493e-07
6.03901e-07
5.92831e-07
5.12031e-07
5.11667e-07
4.9467e-07
4.97016e-07
4.96269e-07
5.33079e-07
4.94191e-07
4.97855e-07
4.86862e-07
4.90626e-07
4.94649e-07
4.94954e-07
4.91922e-07
4.89615e-07
4.96354e-07
4.95189e-07
4.82188e-07
1.10854e-06
5.3299e-07
5.44763e-07
5.36655e-07
5.15417e-07
5.01772e-07
5.53774e-07
5.53774e-07
5.53774e-07
5.53774e-07
5.53774e-07
5.53774e-07
5.50785e-07
5.50785e-07
7.45291e-07
7.11668e-07
4.9897e-07

NodalForce_(N) 3 343 double
-1.43567e-06 4.17927e-08 3.54949e-08
-1.26735e-05 7.72928e-07 7.52373e-08
0.000462076 0.000115092 0.000601511
-1.0302e-05 1.05163e-06 4.22903e-09
-1.17271e-05 6.40756e-06 -1.3679e-06
-1.44769e-05 5.86826e-06 -1.43394e-06
-2.99117e-05 1.50554e-05 -4.85338e-06
-1.89912e-05 7.24159e-06 -2.28708e-06
-1.3768e-05 8.62322e-06 -2.46561e-06
-1.06073e-05 3.1223e-06 -7.72197e-07
-1.94622e-06 1.88445e-06 -4.91584e-07
-1.21099e-05 8.91336e-06 -2.2068e-06
-2.45799e-06 3.17379e-06 -5.60489e-07
-8.30424e-06 7.09358e-07 -1.21644e-07
-2.71491e-06 1.53718e-06 -5.269e-07
-2.35913e-05 9.44847e-06 -2.89705e-06
-1.87584e-05 6.65002e-06 -1.97071e-06
-6.99323e-06 8.92353e-07 9.01937e-08
0.00072001 0.000740494 0.000157466
-4.41953e-06 8.89343e-08 2.13308e-07
-1.47612e-05 7.97929e-06 -2.54056e-06
-2.67842e-05 2.01313e-05 -6.04618e-06
0.0017395 -0.000598508 0.000282396
-5.6293e-06 2.74135e-06 -8.57002e-07
-1.69453e-05 8.68973e-06 -3.09633e-06
-1.12693e-05 2.79293e-06 -1.31548e-06
-1.13847e-06 6.94405e-08 2.54738e-08
-3.59273e-06 2.64313e-06 -8.68078e-07
-4.33286e-06 3.20376e-07 -1.70219e-07
-1.28301e-05 3.06756e-07 3.12745e-09
-1.53357e-05 2.29939e-06 -1.36014e-06
-6.19085e-05 2.66322e-05 -8.42379e-06
-3.29913e-05 1.92425e-05 -6.07601e-06
-2.86968e-05 1.41406e-05 -4.64472e-06
-2.08163e-05 9.55189e-06 -3.20504e-06
-4.21653e-05 1.61023e-05 -5.06214e-06
-1.94164e-05 7.53857e-06 -2.31536e-06
-6.19407e-05 2.27529e-05 -8.3806e-06
-6.31279e-06 1.78848e-06 -2.66913e-07
-9.81762e-06 3.53811e-06 -1.27143e-06
-6.45825e-06 3.61917e-06 -4.14915e-07
-2.74488e-05 7.20103e-06 -2.04471e-06
-1.39385e-05 6.43614e-07 3.87032e-07
-4.39644e-06 5.41462e-07 4.12241e-08
-1.76758e-05 3.27162e-06 -3.58293e-07
0.0012022 0.000107749 -0.000382643
-5.23508e-06 2.49409e-07 8.12054e-08
0.000322282 0.000735781 -0.000581944
-1.09514e-05 7.75164e-07 9.55615e-08
-1.71771e-06 7.3621e-08 4.99609e-08
-8.15618e-06 3.54627e-06 -1.17822e-06
-1.66005e-05 6.32389e-06 -2.13694e-06
-1.13934e-05 2.83408e-07 2.03611e-07
-6.60567e-06 6.29875e-07 1.21723e-08
-5.1002e-06 1.70602e-07 1.23384e-07
-1.83362e-05 1.12481e-05 -3.67454e-06
0.00106774 -0.000201644 0.00011656
-2.42735e-06 9.99154e-08 2.52125e-08
0.00200281 -0.000582386 0.000679514
-9.69107e-06 5.20518e-06 -1.72392e-06
-2.41891e-06 5.53768e-07 -2.45391e-07
-1.14074e-05 9.69809e-06 -3.20068e-06
-4.20006e-05 2.92976e-05 -1.02019e-05
-2.24303e-05 1.37734e-05 -4.61421e-06
-7.30915e-06 3.68346e-06 -4.78585e-07
-3.96007e-06 -4.43074e-08 1.21557e-07
-9.67891e-07 8.17398e-07 -6.28701e-08
-1.33494e-05 6.68195e-06 -2.18828e-06
-1.6215e-05 8.07634e-06 -2.77223e-06
-8.59045e-06 9.01475e-06 -2.84092e-06
-2.68497e-06 5.65361e-07 -2.3801e-07
-1.09245e-06 5.25005e-07 -1.49143e-07
-1.44725e-06 1.00082e-06 -9.59718e-08
-9.9024e-06 2.89511e-06 -9.23535e-07
-6.12743e-06 1.16685e-06 -1.44743e-07
0.00174753 -0.000225977 -0.000518177
-9.13101e-06 3.17741e-06 -8.74348e-07
-1.30619e-06 2.26217e-08 3.09077e-08
-1.16739e-05 3.91288e-06 -1.21374e-06
-1.4126e-05 4.30836e-06 -1.27804e-06
-1.00687e-05 2.22039e-06 -5.45138e-07
-7.82284e-06 1.91469e-06 -4.71842e-07
-2.195e-05 1.05763e-05 -3.48516e-06
-7.66993e-06 7.80564e-07 -1.67202e-07
0.00128477 0.000196202 0.000285977
-1.68867e-06 -3.70696e-08 4.35689e-08
0.00126906 -0.000267176 -0.000182572
0.00147181 -0.000249405 -0.000473959
0.00106048 0.000844324 -0.000556543
-3.63597e-06 3.79664e-07 -1.69743e-07
-2.29355e-06 2.78604e-08 6.07961e-08
-1.28556e-05 3.5027e-06 -9.1563e-07
-1.12674e-05 1.55609e-06 -5.78594e-07
-3.97287e-06 3.3518e-06 -1.0677e-06
-2.99264e-05 2.77436e-05 -8.02054e-06
-5.61195e-06 5.45602e-06 -1.65943e-06
-1.20571e-05 8.2308e-06 -2.33368e-06
-7.43483e-06 5.20843e-06 -1.81882e-06
0.00189765 0.000889449 -3.07931e-05
-2.51952e-05 8.29942e-06 -2.14252e-06
-8.17261e-06 4.99905e-06 -1.82923e-06
-1.63862e-05 7.16383e-06 -2.88096e-06
-2.14699e-06 3.30999e-07 -2.5644e-08
-2.45485e-05 9.9107e-06 -2.91935e-06
-1.32921e-06 4.0164e-07 -1.08046e-07
-5.84023e-06 5.0338e-06 -1.82419e-06
-2.99564e-05 8.93981e-06 -2.70692e-06
-8.10728e-06 9.32047e-06 -2.76489e-06
-1.13628e-05 9.17535e-06 -2.16709e-06
-7.71079e-07 -1.21231e-08 2.15378e-08
-1.34875e-05 4.39597e-06 -1.88818e-06
-2.68567e-05 6.26113e-06 -2.37021e-06
-2.16535e-05 6.11396e-06 -2.7741e-06
0.000519571 0.00036504 -0.000579787
-7.02687e-06 5.67949e-06 -1.96333e-06
-4.55671e-06 2.21107e-07 5.47656e-08
-1.04135e-05 4.70498e-06 -1.6835e-06
-2.86894e-05 1.33184e-05 -4.53116e-06
-1.64624e-05 4.39491e-06 -1.48741e-06
-2.79517e-06 3.63877e-06 -8.78414e-07
-1.27385e-05 1.15014e-05 -3.625e-06
-1.70418e-05 1.12667e-05 -3.5622e-06
-1.31361e-06 1.37579e-07 4.82484e-08
0.00152522 0.00016873 0.000434094
-5.03907e-07 6.6182e-08 4.13778e-08
-8.40352e-06 4.45542e-06 -1.49197e-06
-1.40813e-05 3.54878e-06 -1.51632e-06
0.00180043 0.000305303 -0.000960306
-8.62149e-07 6.45818e-09 2.22886e-08
-1.80825e-05 3.47693e-06 -5.96759e-07
-7.72101e-06 3.26042e-06 -9.58666e-07
-1.19123e-05 5.89305e-06 -1.90029e-06
-2.9434e-06 3.09234e-06 -9.0367e-07
-6.35294e-06 4.02426e-06 -1.38189e-06
0.00156548 -0.00025287 0.000352993
-1.28336e-06 -4.8667e-09 2.57074e-08
0.00154921 -0.000272848 0.000435434
-4.4079e-06 4.29106e-06 -1.45256e-06
-9.48482e-06 4.63637e-06 -1.68121e-06
-2.65821e-05 1.16282e-05 -4.28642e-06
-1.42432e-05 8.31888e-06 -2.72577e-06
-2.92831e-06 3.35462e-06 -9.97567e-07
-2.70018e-06 3.49403e-06 -9.63373e-07
-6.58276e-06 6.41593e-06 -1.98044e-06
0.000960155 0.000592957 -0.00074927
-3.41086e-06 5.20525e-06 -1.23921e-06
-1.70474e-06 1.5784e-06 -3.10571e-07
-4.0245e-05 1.93617e-05 -7.12433e-06
-1.31942e-05 7.86389e-06 -2.82796e-06
-3.24929e-06 7.09257e-07 -7.82139e-08
-6.03122e-06 6.81959e-07 -2.75208e-08
-5.308e-07 4.12229e-08 4.35884e-09
0.00227706 0.00053699 -7.1101e-06
-5.74262e-06 3.37539e-06 -1.11293e-06
-1.04833e-05 3.35292e-06 -9.85031e-07
-7.34077e-06 3.11011e-06 -9.92952e-07
0.00157865 -1.99152e-05 -0.00065208
0.00103613 0.000769334 0.00167103
-4.35145e-06 2.05618e-06 -7.44256e-07
-1.05495e-05 8.1519e-06 -2.60327e-06
-7.62218e-07 9.18837e-07 -1.19286e-07
-3.21429e-06 3.86211e-07 -2.98077e-08
-5.20727e-06 3.61942e-06 -1.35479e-06
-2.98286e-06 1.06204e-06 -3.89193e-07
-9.78786e-06 5.31104e-06 -1.70536e-06
-6.99087e-06 3.51934e-06 -1.13956e-06
-8.54357e-06 4.33238e-06 -1.78952e-06
-4.42189e-06 4.58408e-07 -3.32333e-07
-1.09648e-05 3.59919e-06 -1.45349e-06
-7.7437e-06 2.58553e-06 -8.88556e-07
-6.08347e-06 1.56557e-06 -7.47899e-07
-1.84804e-05 6.62478e-06 -2.37818e-06
-3.71948e-06 3.40868e-06 -1.20338e-06
-2.80662e-06 3.84323e-07 -2.18983e-07
-4.2277e-06 1.03676e-06 -4.99912e-07
-1.38316e-06 4.64059e-07 -2.15059e-07
-7.58715e-06 2.95925e-06 -8.77118e-07
-5.58837e-07 5.11522e-07 -2.74028e-08
-1.252e-05 6.76818e-06 -2.40506e-06
0.00195913 -8.50355e-05 0.000234381
-1.1031e-05 8.03874e-06 -2.61887e-06
-1.19339e-05 6.21426e-06 -2.51712e-06
-1.2434e-05 8.43897e-06 -3.04369e-06
0.00155086 -0.000301268 -0.000242105
-1.6821e-06 2.37564e-07 -4.40977e-08
-2.22431e-06 3.2842e-06 -8.51225e-07
-6.83881e-06 6.23605e-06 -1.94311e-06
-5.81113e-06 4.22279e-06 -1.36036e-06
-9.64177e-06 2.75188e-06 -5.395e-07
-1.55775e-05 3.98013e-06 -9.05282e-07
-7.85739e-06 2.15039e-06 -4.61353e-07
-9.35018e-06 3.25346e-06 -7.84154e-07
-2.6393e-06 2.29318e-07 -1.49477e-07
-4.95236e-06 1.01528e-06 -6.06573e-07
-7.41618e-07 5.58741e-07 -5.43053e-08
-7.84414e-07 6.94783e-07 -7.57379e-08
-9.03865e-06 5.25862e-06 -1.97895e-06
-1.18609e-05 1.91228e-06 -7.63769e-07
-8.42113e-06 5.23331e-06 -1.81358e-06
-7.31665e-06 2.45757e-06 -1.13086e-06
-1.29468e-05 4.89692e-06 -1.59403e-06
0.00171181 -0.000437739 -0.000129474
-2.23298e-06 5.36851e-10 7.58245e-08
0.00142858 -0.000547778 0.000126767
-5.21078e-06 9.89145e-07 -4.20307e-07
-8.41569e-06 1.67944e-06 -4.75464e-07
-1.34312e-05 3.55528e-06 -1.47704e-06
-6.80549e-06 2.91682e-06 -1.2481e-06
-2.97203e-06 3.02353e-06 -7.3058e-07
-2.01568e-06 2.37915e-06 -4.55237e-07
-1.34655e-06 8.39832e-09 5.279e-08
-6.58799e-06 4.13678e-06 -1.61494e-06
-7.85841e-06 5.24396e-06 -1.70055e-06
-1.21618e-05 4.11641e-06 -1.09686e-06
-3.2625e-06 1.99552e-06 -7.01992e-07
-1.12493e-06 5.84427e-07 -1.39271e-07
-5.77907e-06 5.1175e-06 -1.62663e-06
-5.75123e-06 5.22664e-07 -2.63334e-08
-5.5424e-06 1.92618e-06 -9.34976e-07
-1.37988e-05 5.8946e-06 -2.4596e-06
-6.39708e-06 1.78124e-06 -4.01104e-07
-1.02106e-05 6.66296e-06 -2.22062e-06
-6.63795e-06 1.68313e-06 -4.1954e-07
-4.20356e-06 4.63453e-06 -1.28143e-06
-4.33867e-06 5.01334e-07 9.81047e-09
0.00159991 0.000232524 0.000756386
-3.72869e-06 9.12164e-07 -3.48613e-07
-1.48806e-06 1.96198e-06 -3.76806e-07
-1.00869e-05 1.64476e-06 -2.73013e-07
-5.72268e-06 1.21575e-06 -1.46359e-07
-1.31989e-06 1.42561e-06 -2.08824e-07
-8.53009e-06 1.46686e-06 -2.65868e-07
0.00230638 -0.00129117 6.03948e-05
0.00188413 0.000612378 -0.00102238
-5.36173e-06 1.12909e-06 -6.91739e-07
-1.48515e-05 3.47642e-06 -1.10151e-06
-1.61034e-06 1.48098e-06 -4.18311e-07
-9.04262e-06 5.08656e-06 -1.74141e-06
-1.0424e-05 1.51526e-06 -1.95328e-07
-4.53407e-06 1.89107e-06 -7.6068e-07
-1.15283e-05 5.96709e-06 -2.2329e-06
0.000881635 0.000724693 4.66565e-05
-1.08008e-05 4.2224e-06 -1.71238e-06
-5.76673e-07 3.87677e-07 -1.4927e-07
0.000925335 -4.68443e-05 -0.000967702
-2.2611e-06 6.78949e-07 -2.22785e-07
0.00239427 -0.000976882 8.43941e-05
-1.21897e-05 5.61517e-06 -2.1159e-06
-7.06246e-06 3.32872e-06 -1.32779e-06
0.000717552 -0.00109337 0.000228202
-4.3836e-06 1.67302e-06 -7.26801e-07
0.000738094 0.00112992 -9.12937e-05
-1.88621e-06 1.84647e-06 -6.20545e-07
-3.77206e-06 1.76464e-06 -5.37499e-07
-5.95863e-06 9.6057e-07 -5.55651e-07
-8.06665e-06 5.93028e-06 -1.9855e-06
-1.01234e-06 7.82446e-07 -2.94442e-07
0.000529001 -0.000298724 0.00076217
-7.53988e-06 1.85085e-06 -2.56135e-07
-3.46562e-07 6.08088e-07 -1.47085e-07
-1.60833e-06 1.81019e-06 -5.50983e-07
0.000297656 -0.000588159 0.000998868
-1.01647e-05 3.82888e-06 -1.34001e-06
-1.10761e-05 4.83232e-06 -1.76817e-06
-1.79628e-06 1.87827e-06 -6.00683e-07
-3.35701e-06 1.77934e-06 -7.12033e-07
-7.26097e-07 9.95787e-08 2.25497e-08
0.00116407 0.000732557 -4.1639e-05
0.000574053 -0.000911292 0.000305405
0.000580637 -0.00103153 0.000264672
-9.74511e-06 3.70162e-06 -1.42528e-06
-3.56229e-06 1.56196e-06 -5.10961e-07
-5.33282e-06 1.10058e-06 -1.43901e-07
-3.03469e-06 1.81625e-06 -6.08093e-07
0.000777404 0.000475589 0.000148615
0.000556398 0.000458184 -0.000480521
-3.19575e-07 7.70868e-08 3.88535e-08
-6.34636e-07 5.09501e-08 1.06508e-08
-8.39086e-06 3.73332e-06 -1.14777e-06
-1.09279e-06 4.05234e-08 3.22604e-08
0.000791576 -0.000138915 -0.00035358
-8.75986e-06 4.45421e-06 -1.42335e-06
-3.06689e-06 8.9538e-07 -3.16724e-07
-7.74786e-06 6.16605e-06 -2.20791e-06