# vtk DataFile Version 4.2
vtk output
ASCII
DATASET UNSTRUCTURED_GRID

POINTS 343 double
0.00153503 0.00421242 -1.69643e-05
0.00296904 0.00501656 0.00214259
0 0.00419538 0.00112517
0.0026426 0.00198445 0.00191302
0.00708289 0.00248985 0.00495795
0.00708016 0.00391243 0.00632484
0.0104283 0.00489898 0.00489187
0.00852113 0.00495097 0.00360138
0.00935705 0.00339883 0.00682029
0.00683137 0.00507234 0.00492781
0.00572194 0.00118502 0.00994028
0.00723145 0.00216484 0.00783067
0.00574153 5.95633e-05 0.00825875
0.00275189 0.00203318 0.00800355
0.00586327 0.00260049 0.00993857
0.00950931 0.00655949 0.0068517
0.00877265 0.00628636 0.0050923
0.00309405 0.00221967 0.00511261
0 0.00143586 0.00417514
0.00218087 0.0034907 0.0040131
0.00936377 0.00330439 0.00306238
0.0106059 0.00233954 0.00495516
0 0.00270918 0.00154168
0.00570295 0.0014961 -6.07364e-05
0.00686521 0.00226875 0.00212377
0.00542851 0.00359032 0.00154445
0.00184255 1.96989e-05 0.00404015
0.00574012 5.979e-05 0.00162599
0.00359159 0.00699315 -3.86438e-05
0.00264635 0.00808285 0.00191538
0.00559409 0.00631327 0.0015844
0.0109299 0.00811603 0.00788949
0.0108902 0.00494552 0.00791496
0.0114613 0.00621721 0.00583133
0.0136332 0.0089857 0.00405437
0.0103549 0.00775948 0.00485687
0.0116942 0.0101248 0.00404617
0.0109029 0.00810266 0.00190008
0.00483978 0.00309197 0.00690877
0.00607083 0.00373172 0.00826121
0.00533379 0.00166277 0.00591297
0.00683846 0.00774754 0.00760667
0.00271528 0.00803843 0.00796034
0.00385763 0.0100413 0.00708555
0.00535123 0.00846108 0.00590074
0 0.00695361 0.00262895
0.00224959 0.00626484 0.00406309
0 0.0040177 0.00850214
0.00316313 0.00502136 0.00762749
0.00195699 0.00419608 0.00997881
0.00979797 0.00723367 0.00990206
0.00836243 0.00606869 0.00833354
0.00280198 0.00797318 0.004711
0.00416001 0.00699071 0.00642319
0.00216787 0.00610293 0.00590228
0.0136257 0.00594628 0.00817751
0 0.00718191 0.00711644
0.00216547 0.00579847 -2.38527e-05
0 0.00577432 0.00158701
0.0136282 0.00732014 0.00697746
0.00391843 0.00339341 0.00995797
0.0136236 0.0015753 0.00403672
0.011009 0.00207426 0.00186276
0.0114768 0.00363902 0.00387942
0.0051076 0.00170771 0.00407349
0.00205795 0.0100228 0.00579229
0.00385121 4.09667e-05 0.00708697
0.00835754 0.00426914 0.00829172
0.0136299 0.00741553 0.00405732
0.0116819 0.000113389 0.0040474
0.00457923 0.00292349 -4.89487e-05
0.00369256 0.00158088 0.0099605
0.00386648 4.09831e-05 0.00279026
0.00656199 0.00527003 0.00748672
0.00432532 0.00319614 0.00312027
0 0.00849157 0.00581511
0.00666362 0.00374754 0.00371483
0.00210374 0.00273265 -2.31165e-05
0.00791603 0.00840798 0.00991979
0.00816626 0.0100863 0.00842376
0.00575008 0.0100609 0.00825803
0.00548263 0.00856103 0.00994237
0.0136303 0.0086274 0.0056751
0.00430435 0.00688343 0.00310335
0 0.00748929 0.00137438
0.00187489 0.00751025 -2.07146e-05
0 0.00287343 0.00335182
0 0.00580816 0.00831736
0 0.00429792 0.00253898
0.00346815 0.00433631 -3.73384e-05
0.00195661 0.00584079 0.0099788
0.00707658 0.00655117 0.00632671
0.00492349 0.00656541 0.0081823
0.00948356 0.00272426 0.00990439
0.0109492 0.00206905 0.00792633
0.00951806 9.5098e-05 0.00298105
0.00822451 0.0017494 0.00352547
0.0136254 0.00301186 0.00321221
0 0.00140616 0.00256446
0.00870788 0.00831926 0.0063317
0.00794964 0.00151796 -8.46465e-05
0.00824997 0.00363849 0.00151472
0.00430979 0.0100459 0.00577819
0.0116848 0.0101248 0.00571298
0.00350154 0.00144396 -3.76305e-05
0.00816252 8.25654e-05 0.00140658
0.00858466 0.00837841 0.00352555
0.0116733 0.000113505 0.00571452
0.00847552 0.00176037 0.00627874
0.00191585 0.00258503 0.00997918
0.009727 0.00728427 -0.00010439
0.00706484 0.00776541 0.00209185
0.00812489 0.00617987 0.00151425
0 0.00686719 0.00578184
0.0136265 0.00154591 0.00242581
0.00242288 0.00363701 0.0063815
0.0136347 0.00862249 0.00248329
0.0114848 0.00630764 0.00401378
0.00817411 0.0100872 0.00140463
0.0095121 9.46109e-05 0.00683138
0.0136219 0.00157487 0.00568097
0.0114596 0.00368997 0.00594432
0.00205589 2.19684e-05 0.005793
0 0.0013659 0.00748679
0.00186577 1.9903e-05 0.00750881
0.0136284 0.00700681 0.00564071
0.00795218 0.0085763 -8.65971e-05
0 0.0075208 0.00859127
0.00186181 0.00750671 0.00997995
0.00578431 0.00826743 0.0035649
0.0117291 0.0101236 0.00739404
0.0136311 0.00876577 0.00738665
0.00787718 0.00166833 0.00991988
0.00990616 0.00428998 0.0099003
0 0.0057735 0.00666667
0.00186796 0.0100207 0.00750815
0 0.00863025 0.00752641
0.0117208 0.000115082 0.00238434
0.0136314 0.007095 0.00248913
0.0115524 0.00646156 0.00204123
0.0116123 0.00594304 0.00988575
0.0102169 0.00147817 0.00989814
0.0117171 0.000115083 0.00739546
0.0136219 0.00150508 0.00734831
0 0.00143551 0.00581971
0.00815516 8.24432e-05 0.008424
0.00575324 5.93981e-05 0.00333791
0.0108388 0.00482006 0.00191984
0.0136278 0.00443629 0.00239952
0.00577586 0.0100614 0.00660538
0.00387195 0.0100412 0.00278887
0.00179042 1.92932e-05 0.00239875
0 0.00727418 0.00419576
0.013626 0.00591153 0.00652684
0.009529 0.0101015 0.00297935
0.0102485 0.00874257 0.00989779
0 0.00574334 0.00336387
0 0.0043297 0.00416652
0.00937565 0.00588118 0.00990605
0.0136221 0.00316011 0.0067778
0.00576669 5.9628e-05 0.00660695
0.00338145 0.0100363 0.00857522
0.0102244 0.00147046 -0.000108099
0.00788179 0.00674928 0.00991993
0.0136293 0.00765812 0.00845062
0.0117489 0.00767389 0.00988419
0.00944726 0.00311998 -9.99669e-05
0.00459714 0.00579404 -4.92265e-05
0.0102884 0.00873904 -0.000109758
0.0102708 0.0101094 0.00127729
0.00790526 0.00695102 -8.54767e-05
0.00953091 0.0064715 0.00293177
0.01026 0.000102826 0.00127816
0.00393413 0.00504078 0.00995805
0.00590973 0.00589575 0.00993856
0.00590793 0.00422857 0.00993845
0.0102646 0.0101073 0.00851396
0.00337578 3.5567e-05 0.00857597
0.0136289 0.00588152 0.00322427
0 0.00302218 0.00691532
0.0136234 0.00415614 0.00836144
0.0116108 0.00413714 -0.000122581
0.013629 0.00284777 0.0014045
0 0.00244495 0.00857025
0.0033356 0.00860568 0.00996438
0.0102523 0.000102556 0.0085146
0.011579 0.00274056 0.00988562
0.0120735 0.00431677 0.00988055
0.00774953 0.0100822 0.00575253
0.00708868 0.00765872 0.00495732
0.00771338 0.0100818 0.00413223
0.00952365 0.010101 0.00683027
0.00412363 0.00695973 0.00995629
0.00569462 0.00439175 -6.07664e-05
0.00386984 4.08054e-05 0.00436333
0.00430288 4.54512e-05 0.00578013
0.0136312 0.00433424 0.000987984
0.00497316 0.00839106 0.00153376
0.0136261 0.00446792 0.00402774
0.00911189 0.00586895 -9.78946e-05
0.0117326 0.010125 0.00238341
0 0.00848692 0.00262374
0.00184384 0.0100206 0.00403934
0 0.00885053 0.00419359
0.00573446 0.00891186 -6.22618e-05
0.00574922 0.0100611 0.00162462
0.00683325 0.00486493 0.00230518
0.00986431 0.00462442 -0.000104817
0.00770191 7.8084e-05 0.0041341
0.00773867 7.85742e-05 0.00575397
0.00179129 0.0100198 0.00239786
0.0117017 0.00256472 -0.00012385
0.0136233 0.00466027 0.00708111
0.00972026 0.0101038 0.00489847
0.00783733 0.00344545 0.00991967
0.00335508 3.57702e-05 0.00132012
0.0136228 0.00258376 0.00842944
0.00327056 0.00482696 0.00496434
0.00797175 0.00441427 -8.4956e-05
0.0113625 0.00592583 -0.000119685
0.00748646 0.0100792 0.0071428
0.0136237 0.00446828 0.00569453
0.00738704 0.0100785 0.00269526
0.0097094 9.62912e-05 0.0048995
0.00387532 0.0100414 0.00436125
0 0.00452174 0.00721958
0.00617168 0.00728532 0.00993604
0.00747582 7.61633e-05 0.00714393
0.00492429 0.00512758 0.0035428
0.00581186 0.0100618 0.00494518
0.00580227 5.98333e-05 0.00494754
0.00501479 0.00527094 0.00612115
0 0.005744 0.00499998
0 0.00433013 0.00583333
0.00683528 0.00581769 -7.33758e-05
0.0068144 0.00641223 0.00348013
0.00737552 7.50558e-05 0.00269705
0.0136271 0.00588062 0.00486056
0.00504359 0.00646283 0.00478933
0.00783997 0.00508165 0.00991987
0.0136325 0.00591203 0.00144896
0 0.00666667 0
0.0117363 0.0076425 -0.000123798
0.00455109 4.75682e-05 -4.78746e-05
0 0.01 0.00666667
0.00682773 0.0100718 0.00992984
0 0.00288419 0.00499914
0.0136352 0.00762931 0.0012358
0.0136377 0.0068047 -0.000138309
0 0.005 0.01
0.00683059 0.00295658 -7.27579e-05
0 0.005 0
0.0136272 0.000137765 0.00319474
0.0136372 0.0101361 0.00652647
0.00573647 0.00733604 -6.19895e-05
0.0136237 0.00302221 0.00486038
0.00682816 6.99218e-05 -7.22004e-05
0 0 0.00666667
0.00518953 0.00367256 0.00517076
0.00681842 6.95864e-05 0.00993009
0.013624 0.000137692 0.00652844
0 0 0.005
0.0119948 0.0101269 0.00109433
0.0136394 0.00891642 0.00108202
0.0136251 0.000137489 0.00486128
0.0136354 0.00513896 -0.0001377
0.00166435 0.00123826 -1.82488e-05
0 0.00122008 0.00122008
0 0.00333333 0.01
0 0.00666667 0.01
0.0119937 0.00890469 -0.000126492
0.0136401 0.0101358 0.00319319
0.00576271 0.0100611 0.00333597
0.0136312 0.00680425 0.00985909
0 0.00333333 0
0 0.00122008 0.00877992
0.00166173 1.7624e-05 0.00876234
0.00166181 0.00123797 0.00998195
0.0119874 0.0101246 0.00865996
0.00166322 0.00879782 0.00998196
0 0.00877992 0.00877992
0.0136332 0.00891468 0.00863972
0.009116 0.0100972 -9.86221e-05
0.0136304 0.00136027 0.00108233
0.00166389 0.0100182 0.00876201
0.0119858 0.00890203 0.00988124
0.0136292 0.00513786 0.00985946
0 0 0.00333333
0.00910366 9.14625e-05 -9.60696e-05
0.0119824 0.000119021 0.00109449
0.00165221 1.77703e-05 0.00119385
0 0.00877992 0.00122008
0.00166415 0.00879848 -1.84219e-05
0.00165288 0.0100181 0.00119295
0.0136237 0.00135971 0.00864013
0.0119762 0.00134153 0.00988147
0.00909247 9.13004e-05 0.00990866
0.0119858 0.00134202 -0.000126269
0.0119751 0.000118725 0.00866091
0.0136344 0.00347278 -0.000137578
0.00455065 0.0100478 0.00995173
0.00335942 0.0100359 0.00131912
0.00910444 0.0100954 0.00990853
0.0136267 0.00347052 0.00985891
0 0.01 0.005
0.00358508 0.00852602 -3.87409e-05
0.0136381 0.0101361 0.00486027
0 0.01 0.00333333
0 0.00166667 0
0.0136306 0.00013782 0.00152863
0 0.00166667 0.01
0 0.00833333 0
0.0136413 0.00847181 -0.000139839
0.0136245 0.00013788 0.00819498
0.0136437 0.0101375 0.00152838
0.0136376 0.0101359 0.00819379
0.00227353 0.0100242 0.00997545
0 0.01 0.00833333
0.0113897 0.0101208 -0.000120576
0.0113774 0.000113726 -0.000119895
0.0113674 0.000113514 0.00988755
0.0113801 0.0101178 0.00988724
0 0 0.00833333
0.0136349 0.00846769 0.00986004
0.00227361 2.43143e-05 -2.43323e-05
0 0 0.00166667
0.00455768 0.0100486 -4.94155e-05
0.0136263 0.00180695 0.00986005
0.0136345 0.00180793 -0.000138218
0.00226985 2.40735e-05 0.0099759
0.00227549 0.0100246 -2.50202e-05
0 0.01 0.00166667
0.0136401 0.0101372 0.00986107
0 0 0.01
0.0136477 0.0101384 -0.000140444
0.0136273 0.000137266 0.00986221
0 0.01 0.01
0.013636 0.000137061 -0.000139148
0 0.01 0
0 0 0
0.0068383 0.0100729 -7.47154e-05
0.00454353 4.77458e-05 0.00995218
0 0.00833333 0.01

CELLS 343 686
1 0
1 1
1 2
1 3
1 4
1 5
1 6
1 7
1 8
1 9
1 10
1 11
1 12
1 13
1 14
1 15
1 16
1 17
1 18
1 19
1 20
1 21
1 22
1 23
1 24
1 25
1 26
1 27
1 28
1 29
1 30
1 31
1 32
1 33
1 34
1 35
1 36
1 37
1 38
1 39
1 40
1 41
1 42
1 43
1 44
1 45
1 46
1 47
1 48
1 49
1 50
1 51
1 52
1 53
1 54
1 55
1 56
1 57
1 58
1 59
1 60
1 61
1 62
1 63
1 64
1 65
1 66
1 67
1 68
1 69
1 70
1 71
1 72
1 73
1 74
1 75
1 76
1 77
1 78
1 79
1 80
1 81
1 82
1 83
1 84
1 85
1 86
1 87
1 88
1 89
1 90
1 91
1 92
1 93
1 94
1 95
1 96
1 97
1 98
1 99
1 100
1 101
1 102
1 103
1 104
1 105
1 106
1 107
1 108
1 109
1 110
1 111
1 112
1 113
1 114
1 115
1 116
1 117
1 118
1 119
1 120
1 121
1 122
1 123
1 124
1 125
1 126
1 127
1 128
1 129
1 130
1 131
1 132
1 133
1 134
1 135
1 136
1 137
1 138
1 139
1 140
1 141
1 142
1 143
1 144
1 145
1 146
1 147
1 148
1 149
1 150
1 151
1 152
1 153
1 154
1 155
1 156
1 157
1 158
1 159
1 160
1 161
1 162
1 163
1 164
1 165
1 166
1 167
1 168
1 169
1 170
1 171
1 172
1 173
1 174
1 175
1 176
1 177
1 178
1 179
1 180
1 181
1 182
1 183
1 184
1 185
1 186
1 187
1 188
1 189
1 190
1 191
1 192
1 193
1 194
1 195
1 196
1 197
1 198
1 199
1 200
1 201
1 202
1 203
1 204
1 205
1 206
1 207
1 208
1 209
1 210
1 211
1 212
1 213
1 214
1 215
1 216
1 217
1 218
1 219
1 220
1 221
1 222
1 223
1 224
1 225
1 226
1 227
1 228
1 229
1 230
1 231
1 232
1 233
1 234
1 235
1 236
1 237
1 238
1 239
1 240
1 241
1 242
1 243
1 244
1 245
1 246
1 247
1 248
1 249
1 250
1 251
1 252
1 253
1 254
1 255
1 256
1 257
1 258
1 259
1 260
1 261
1 262
1 263
1 264
1 265
1 266
1 267
1 268
1 269
1 270
1 271
1 272
1 273
1 274
1 275
1 276
1 277
1 278
1 279
1 280
1 281
1 282
1 283
1 284
1 285
1 286
1 287
1 288
1 289
1 290
1 291
1 292
1 293
1 294
1 295
1 296
1 297
1 298
1 299
1 300
1 301
1 302
1 303
1 304
1 305
1 306
1 307
1 308
1 309
1 310
1 311
1 312
1 313
1 314
1 315
1 316
1 317
1 318
1 319
1 320
1 321
1 322
1 323
1 324
1 325
1 326
1 327
1 328
1 329
1 330
1 331
1 332
1 333
1 334
1 335
1 336
1 337
1 338
1 339
1 340
1 341
1 342

CELL_TYPES 343
1
1
1
1
1
1
1
1
1
1
1
1
1
1
1
1
1
1
1
1
1
1
1
1
1
1
1
1
1
1
1
1
1
1
1
1
1
1
1
1
1
1
1
1
1
1
1
1
1
1
1
1
1
1
1
1
1
1
1
1
1
1
1
1
1
1
1
1
1
1
1
1
1
1
1
1
1
1
1
1
1
1
1
1
1
1
1
1
1
1
1
1
1
1
1
1
1
1
1
1
1
1
1
1
1
1
1
1
1
1
1
1
1
1
1
1
1
1
1
1
1
1
1
1
1
1
1
1
1
1
1
1
1
1
1
1
1
1
1
1
1
1
1
1
1
1
1
1
1
1
1
1
1
1
1
1
1
1
1
1
1
1
1
1
1
1
1
1
1
1
1
1
1
1
1
1
1
1
1
1
1
1
1
1
1
1
1
1
1
1
1
1
1
1
1
1
1
1
1
1
1
1
1
1
1
1
1
1
1
1
1
1
1
1
1
1
1
1
1
1
1
1
1
1
1
1
1
1
1
1
1
1
1
1
1
1
1
1
1
1
1
1
1
1
1
1
1
1
1
1
1
1
1
1
1
1
1
1
1
1
1
1
1
1
1
1
1
1
1
1
1
1
1
1
1
1
1
1
1
1
1
1
1
1
1
1
1
1
1
1
1
1
1
1
1
1
1
1
1
1
1
1
1
1
1
1
1
1
1
1
1
1
1
1
1
1
1
1
1
1
1
1
1
1
1
1
1
1
1
1
1
1
1
1
1
1
1
1
1
1
1
1
1

POINT_DATA 343
FIELD FieldData 8

NodeID_(#) 1 343 int
0
1
2
3
4
5
6
7
8
9
10
11
12
13
14
15
16
17
18
19
20
21
22
23
24
25
26
27
28
29
30
31
32
33
34
35
36
37
38
39
40
41
42
43
44
45
46
47
48
49
50
51
52
53
54
55
56
57
58
59
60
61
62
63
64
65
66
67
68
69
70
71
72
73
74
75
76
77
78
79
80
81
82
83
84
85
86
87
88
89
90
91
92
93
94
95
96
97
98
99
100
101
102
103
104
105
106
107
108
109
110
111
112
113
114
115
116
117
118
119
120
121
122
123
124
125
126
127
128
129
130
131
132
133
134
135
136
137
138
139
140
141
142
143
144
145
146
147
148
149
150
151
152
153
154
155
156
157
158
159
160
161
162
163
164
165
166
167
168
169
170
171
172
173
174
175
176
177
178
179
180
181
182
183
184
185
186
187
188
189
190
191
192
193
194
195
196
197
198
199
200
201
202
203
204
205
206
207
208
209
210
211
212
213
214
215
216
217
218
219
220
221
222
223
224
225
226
227
228
229
230
231
232
233
234
235
236
237
238
239
240
241
242
243
244
245
246
247
248
249
250
251
252
253
254
255
256
257
258
259
260
261
262
263
264
265
266
267
268
269
270
271
272
273
274
275
276
277
278
279
280
281
282
283
284
285
286
287
288
289
290
291
292
293
294
295
296
297
298
299
300
301
302
303
304
305
306
307
308
309
310
311
312
313
314
315
316
317
318
319
320
321
322
323
324
325
326
327
328
329
330
331
332
333
334
335
336
337
338
339
340
341
342

Component_(#) 1 343 int
0
0
0
0
0
0
0
0
0
0
0
0
0
0
0
0
0
0
0
0
0
0
0
0
0
0
0
0
0
0
0
0
0
0
0
0
0
0
0
0
0
0
0
0
0
0
0
0
0
0
0
0
0
0
0
0
0
0
0
0
0
0
0
0
0
0
0
0
0
0
0
0
0
0
0
0
0
0
0
0
0
0
0
0
0
0
0
0
0
0
0
0
0
0
0
0
0
0
0
0
0
0
0
0
0
0
0
0
0
0
0
0
0
0
0
0
0
0
0
0
0
0
0
0
0
0
0
0
0
0
0
0
0
0
0
0
0
0
0
0
0
0
0
0
0
0
0
0
0
0
0
0
0
0
0
0
0
0
0
0
0
0
0
0
0
0
0
0
0
0
0
0
0
0
0
0
0
0
0
0
0
0
0
0
0
0
0
0
0
0
0
0
0
0
0
0
0
0
0
0
0
0
0
0
0
0
0
0
0
0
0
0
0
0
0
0
0
0
0
0
0
0
0
0
0
0
0
0
0
0
0
0
0
0
0
0
0
0
0
0
0
0
0
0
0
0
0
0
0
0
0
0
0
0
0
0
0
0
0
0
0
0
0
0
0
0
0
0
0
0
0
0
0
0
0
0
0
0
0
0
0
0
0
0
0
0
0
0
0
0
0
0
0
0
0
0
0
0
0
0
0
0
0
0
0
0
0
0
0
0
0
0
0
0
0
0
0
0
0
0
0
0
0
0
0
0
0
0
0
0
0
0
0
0
0
0
0
0
0
0
0
0
0

NodalMass_(kg) 1 343 double
3.15563e-06
1.41304e-05
2.20912e-06
1.71484e-05
8.42e-06
9.09306e-06
1.01179e-05
7.52198e-06
6.81096e-06
5.58223e-06
3.10888e-06
1.07575e-05
4.87011e-06
1.64955e-05
3.0246e-06
8.05984e-06
6.703e-06
1.0877e-05
4.18978e-06
8.16106e-06
6.14143e-06
1.17902e-05
2.23114e-06
4.25176e-06
1.09915e-05
7.41467e-06
4.21871e-06
3.92484e-06
3.08766e-06
1.31268e-05
7.72627e-06
1.65404e-05
1.19037e-05
7.97564e-06
3.81683e-06
1.11001e-05
3.81317e-06
1.39137e-05
6.37414e-06
8.00975e-06
7.6712e-06
1.21135e-05
1.6399e-05
2.78633e-06
8.93599e-06
2.58087e-06
7.57362e-06
4.23241e-06
1.31286e-05
3.80168e-06
2.7746e-06
7.16776e-06
1.21307e-05
5.11765e-06
8.19728e-06
4.58094e-06
2.79503e-06
3.26126e-06
4.12443e-06
2.11915e-06
3.35177e-06
3.61669e-06
1.56838e-05
7.33679e-06
8.24695e-06
5.00369e-06
2.82625e-06
7.20276e-06
3.26815e-06
4.18751e-06
2.02785e-06
2.42152e-06
3.11835e-06
5.97459e-06
5.87101e-06
4.09374e-06
5.45463e-06
2.28825e-06
4.49759e-06
4.38192e-06
4.50892e-06
4.39234e-06
4.27273e-06
5.32031e-06
1.53201e-06
2.38869e-06
2.02885e-06
4.38798e-06
3.17972e-06
3.14298e-06
4.61567e-06
5.87645e-06
8.18088e-06
2.48341e-06
1.53815e-05
3.49683e-06
7.35227e-06
2.01314e-06
2.0408e-06
7.98183e-06
4.41293e-06
7.1389e-06
1.20123e-06
5.03343e-06
1.61257e-06
4.12601e-06
8.73748e-06
4.37849e-06
7.97173e-06
2.13557e-06
3.38137e-06
9.48623e-06
7.40262e-06
1.80226e-06
2.10222e-06
7.98889e-06
1.87983e-06
7.44814e-06
4.19782e-06
2.37156e-06
4.31705e-06
6.06441e-06
4.30905e-06
2.16843e-06
1.8986e-06
1.81294e-06
3.89762e-06
2.44299e-06
1.65628e-06
8.01374e-06
1.64513e-06
2.3931e-06
3.01363e-06
2.99431e-06
1.36541e-06
1.87293e-06
2.09622e-06
1.94762e-06
1.87618e-06
6.37913e-06
4.58628e-06
2.02767e-06
1.61999e-06
2.41284e-06
3.8865e-06
4.44973e-06
2.29839e-06
1.17349e-05
3.11811e-06
1.354e-06
3.45063e-06
1.81846e-06
2.9382e-06
1.37381e-06
2.41464e-06
2.10451e-06
2.63927e-06
2.14166e-06
1.7943e-06
3.19976e-06
1.36989e-06
2.43489e-06
2.08158e-06
1.3601e-06
2.17203e-06
1.89924e-06
3.16996e-06
2.6119e-06
2.37677e-06
1.60225e-06
1.90684e-06
5.49206e-06
1.87878e-06
3.14313e-06
2.97301e-06
1.18454e-06
1.89263e-06
2.04166e-06
2.73572e-06
2.42405e-06
3.23083e-06
3.19752e-06
3.2142e-06
1.94492e-06
1.61196e-06
1.86876e-06
3.22435e-06
2.1114e-06
2.96917e-06
6.15288e-06
2.3097e-06
2.39729e-06
2.38029e-06
2.64508e-06
1.66557e-06
1.82377e-06
2.06583e-06
5.73271e-06
2.08467e-06
2.18324e-06
2.43522e-06
3.1188e-06
3.17316e-06
2.05447e-06
1.9592e-06
3.05718e-06
6.44327e-06
2.08796e-06
2.72615e-06
2.15709e-06
1.86812e-06
2.0028e-06
2.10999e-06
2.88994e-06
2.3222e-06
2.3979e-06
1.97629e-06
6.4127e-06
2.16225e-06
3.29198e-06
2.10223e-06
2.66566e-06
1.94415e-06
2.91865e-06
2.58116e-06
2.11703e-06
2.09534e-06
1.91719e-06
7.06046e-06
2.25203e-06
2.06378e-06
6.28159e-06
2.12147e-06
2.90924e-06
2.12921e-06
6.4487e-06
1.41701e-06
2.0682e-06
6.58062e-06
2.52584e-06
2.39732e-06
7.42191e-07
2.22368e-06
7.06751e-07
7.00657e-07
8.93749e-07
2.53536e-06
2.26535e-06
1.33607e-06
7.84725e-07
2.32303e-06
6.06694e-07
6.68276e-07
6.84307e-07
2.51242e-06
2.31629e-06
7.8367e-07
6.80839e-07
6.22692e-06
6.7471e-07
6.65305e-07
7.01158e-07
1.8232e-06
1.90695e-06
6.86722e-07
7.04792e-07
1.86445e-06
2.28572e-06
6.8045e-07
7.16005e-07
1.82373e-06
6.01079e-07
2.02791e-06
7.4579e-07
5.74423e-07
1.80052e-06
1.454e-06
2.2702e-06
1.80636e-06
2.15356e-06
1.79089e-06
1.79456e-06
6.8231e-07
2.24737e-06
1.45239e-06
1.79556e-06
6.97875e-07
6.24265e-07
6.62717e-07
1.44627e-06
1.40138e-06
2.15258e-06
1.82851e-06
1.3994e-06
1.43932e-06
2.19226e-06
6.97732e-07
1.77726e-06
1.79162e-06
6.54258e-07
7.3397e-07
2.34895e-06
7.10392e-07
6.56982e-07
6.26314e-07
2.18926e-06
6.12493e-07
6.03901e-07
5.92831e-07
5.12031e-07
5.11667e-07
4.9467e-07
4.97016e-07
4.96269e-07
5.33079e-07
4.94191e-07
4.97855e-07
4.86862e-07
4.90626e-07
4.94649e-07
4.94954e-07
4.91922e-07
4.89615e-07
4.96354e-07
4.95189e-07
4.82188e-07
1.10854e-06
5.3299e-07
5.44763e-07
5.36655e-07
5.15417e-07
5.01772e-07
5.53774e-07
5.53774e-07
5.53774e-07
5.53774e-07
5.53774e-07
5.53774e-07
5.50785e-07
5.50785e-07
7.45291e-07
7.11668e-07
4.9897e-07

NodalForce_(N) 3 343 double
-6.9977e-06 -1.66209e-07 2.94077e-07
-6.1779e-05 -6.02674e-07 2.23725e-06
0.000536777 0.000140735 0.000605665
-6.05915e-05 -3.019e-07 2.54508e-06
-7.44698e-05 9.69666e-06 1.70467e-06
-8.49073e-05 8.25077e-06 1.29613e-06
-0.000144196 2.29667e-05 4.51809e-07
-8.96062e-05 1.0426e-05 1.48548e-06
-8.12579e-05 1.34563e-05 -6.36238e-08
-5.3621e-05 4.07758e-06 1.16343e-06
-2.01793e-05 3.08084e-06 2.02832e-07
-9.3206e-05 1.41283e-05 9.78155e-07
-3.01152e-05 5.22907e-06 8.65439e-07
-5.88688e-05 -1.77981e-07 2.27648e-06
-2.15993e-05 2.36524e-06 8.14426e-08
-0.000110611 1.35968e-05 -2.699e-07
-8.55407e-05 9.32917e-06 9.287e-07
-4.43474e-05 3.32132e-07 2.01423e-06
0.000967244 0.000745228 6.91351e-06
-2.47893e-05 -5.72009e-07 1.24511e-06
-7.50498e-05 1.2325e-05 1.14232e-06
-0.000154592 3.25013e-05 2.96837e-07
0.00203642 -0.000548995 0.00040454
-3.01495e-05 3.80667e-06 1.14543e-06
-9.51712e-05 1.27018e-05 1.87171e-06
-5.52305e-05 3.19405e-06 1.31162e-06
-9.38385e-06 -1.85179e-07 4.90742e-07
-2.56899e-05 3.9575e-06 7.31529e-07
-1.73595e-05 1.00014e-09 5.22439e-07
-5.54342e-05 -9.7053e-07 1.54371e-06
-6.53178e-05 2.04738e-06 1.22669e-06
-0.000270142 3.87508e-05 -4.20302e-06
-0.000173306 2.96116e-05 -2.45366e-06
-0.000129317 2.12079e-05 -6.39706e-07
-7.88937e-05 1.38172e-05 -4.6188e-07
-0.000174304 2.27088e-05 6.92573e-07
-7.16363e-05 1.01623e-05 -3.45141e-08
-0.000234946 3.13359e-05 1.38034e-06
-4.02733e-05 2.15056e-06 1.29703e-06
-6.31502e-05 4.83799e-06 4.99182e-07
-4.93267e-05 5.35684e-06 1.69795e-06
-0.000126116 9.58712e-06 5.77603e-07
-6.87381e-05 -1.71758e-07 2.52857e-06
-1.81164e-05 4.88191e-07 5.00986e-07
-7.62614e-05 3.74783e-06 1.74689e-06
0.00127855 -4.52114e-05 -0.00034966
-2.55714e-05 -2.70376e-07 9.13237e-07
0.000478835 0.00072774 -0.00068796
-5.98534e-05 -4.44066e-08 2.21513e-06
-1.04167e-05 -8.40069e-08 4.36569e-07
-3.91835e-05 5.24101e-06 -7.70501e-07
-8.46067e-05 9.03134e-06 -5.28371e-07
-5.29453e-05 -6.80755e-07 1.79018e-06
-3.20717e-05 4.25435e-07 1.10593e-06
-2.62836e-05 -3.54489e-07 1.02497e-06
-8.49838e-05 1.74629e-05 -1.97156e-06
0.00130751 -0.000190997 0.000141594
-1.07482e-05 -1.92966e-07 4.26438e-07
0.00232462 -0.000635857 0.000890184
-4.1212e-05 7.8447e-06 -7.63322e-07
-1.70606e-05 6.43781e-07 2.04474e-07
-5.96622e-05 1.60395e-05 -3.46928e-07
-0.000215391 4.67712e-05 2.62849e-06
-0.000110138 2.17504e-05 2.81737e-07
-5.14673e-05 5.21941e-06 1.84837e-06
-1.71382e-05 -5.27002e-07 5.84725e-07
-1.18093e-05 1.22284e-06 5.69945e-07
-7.89146e-05 9.98854e-06 -3.07265e-07
-6.47698e-05 1.18938e-05 -3.58108e-07
-5.55898e-05 1.53033e-05 1.20162e-07
-1.26289e-05 5.47953e-07 4.79975e-07
-1.06027e-05 7.51663e-07 2.00984e-07
-1.3465e-05 1.39422e-06 6.56214e-07
-5.42335e-05 3.82507e-06 4.81553e-07
-3.4283e-05 1.00349e-06 1.23601e-06
0.00210604 -0.000312964 -0.000558034
-4.87344e-05 4.3314e-06 1.16303e-06
-6.67383e-06 -2.22305e-07 3.30945e-07
-5.38392e-05 5.64279e-06 -7.45581e-07
-5.78859e-05 5.85601e-06 -7.51685e-07
-4.23812e-05 2.83691e-06 7.85143e-08
-3.68996e-05 2.62876e-06 1.2854e-08
-8.67506e-05 1.55601e-05 -1.03254e-06
-3.48526e-05 4.38805e-07 8.90037e-07
0.00149691 0.000131451 0.000263658
-7.13889e-06 -2.72417e-07 2.87829e-07
0.00144422 -0.000322685 -0.000183526
0.00138105 -0.000177827 -0.000445588
0.00126987 0.000739244 -0.000539259
-1.59166e-05 8.6164e-08 5.82563e-07
-1.305e-05 -1.67555e-07 4.9058e-07
-6.11834e-05 4.60285e-06 7.98145e-07
-5.85784e-05 1.50657e-06 8.33739e-07
-2.83828e-05 5.52892e-06 -4.45346e-07
-0.000200888 4.61696e-05 -2.27976e-06
-3.77643e-05 8.97826e-06 6.39769e-07
-7.36112e-05 1.29211e-05 1.34547e-06
-3.50109e-05 8.43283e-06 -1.07483e-07
0.00216811 0.000933468 -7.35491e-05
-0.000107337 1.14712e-05 4.61128e-07
-4.29558e-05 7.48469e-06 1.14669e-06
-7.86476e-05 1.05028e-05 1.29885e-06
-8.69618e-06 3.24052e-07 1.68453e-07
-9.36469e-05 1.35883e-05 -5.91642e-07
-7.15639e-06 4.46818e-07 3.16756e-07
-3.82234e-05 8.00009e-06 7.95571e-07
-0.000118318 1.18195e-05 1.36921e-06
-5.7394e-05 1.60103e-05 -2.98487e-07
-8.05001e-05 1.48293e-05 8.41525e-07
-5.41574e-06 -1.42392e-07 2.2947e-07
-5.06172e-05 5.85607e-06 5.0895e-07
-0.000105983 7.61091e-06 1.62366e-06
-8.94957e-05 7.99368e-06 1.2645e-06
0.000656744 0.00039744 -0.000458605
-3.49368e-05 9.32852e-06 1.20988e-08
-2.68106e-05 -3.37153e-07 1.06991e-06
-3.87653e-05 6.76734e-06 -1.25799e-07
-0.000122794 1.99489e-05 2.58778e-07
-5.80011e-05 5.28059e-06 5.56065e-07
-2.47096e-05 6.2168e-06 1.04097e-07
-7.04953e-05 1.91663e-05 -9.67766e-07
-8.96857e-05 1.7915e-05 -6.1696e-07
-1.07351e-05 -7.82289e-08 5.74975e-07
0.00172394 0.000198769 0.000372294
-4.28166e-06 -1.1258e-08 2.64223e-07
-3.52183e-05 6.67938e-06 -3.79631e-07
-5.05599e-05 4.24563e-06 6.4253e-07
0.00211036 0.000102963 -0.00107851
-4.60134e-06 -7.14185e-08 1.70969e-07
-7.42536e-05 3.90327e-06 1.70043e-06
-3.04031e-05 4.58506e-06 -5.10508e-07
-4.83251e-05 8.75127e-06 -9.6591e-07
-2.71465e-05 5.19009e-06 -1.70785e-07
-3.8156e-05 6.3653e-06 -7.24654e-07
0.00199184 -0.000158538 0.000247588
-5.76686e-06 -1.50345e-07 1.76697e-07
0.00188187 -0.000319671 0.000432886
-2.62231e-05 7.17988e-06 2.08438e-07
-3.71172e-05 6.83131e-06 -8.02232e-08
-0.00010746 1.7072e-05 6.30867e-07
-7.25792e-05 1.28699e-05 -1.86131e-06
-2.37068e-05 5.71252e-06 -3.98832e-07
-2.10008e-05 6.06605e-06 -1.80043e-07
-3.88318e-05 1.0806e-05 -7.58454e-07
0.00108556 0.000558536 -0.000683472
-3.88131e-05 8.93251e-06 2.90894e-07
-1.4705e-05 2.47318e-06 5.39662e-07
-0.000176266 2.93396e-05 1.78061e-06
-5.69808e-05 1.24607e-05 5.4687e-08
-1.30769e-05 8.6047e-07 1.91778e-07
-2.29677e-05 4.08716e-07 5.52807e-07
-4.00309e-06 -4.98846e-08 1.68934e-07
0.00259864 0.000391551 4.26438e-05
-2.56934e-05 5.23782e-06 -3.98585e-07
-3.80122e-05 4.31223e-06 2.82846e-07
-3.24818e-05 4.61778e-06 -7.65799e-07
0.00175199 -4.11419e-06 -0.000652371
0.00157058 0.000531024 0.00126373
-2.31018e-05 3.10309e-06 -4.58885e-07
-5.47297e-05 1.33501e-05 -9.70576e-07
-8.56259e-06 1.50073e-06 2.88428e-07
-1.37702e-05 3.38958e-07 2.32332e-07
-2.61264e-05 5.6407e-06 4.72409e-07
-1.52789e-05 1.54331e-06 -1.96051e-07
-4.22857e-05 8.06166e-06 -1.01521e-06
-3.21703e-05 5.32447e-06 -8.70687e-07
-3.93176e-05 6.51952e-06 6.00652e-07
-1.81533e-05 1.89839e-07 4.76272e-07
-3.91312e-05 4.67149e-06 2.42105e-07
-2.71587e-05 3.30441e-06 1.08981e-07
-2.32751e-05 1.94933e-06 3.57947e-07
-7.73566e-05 9.29461e-06 8.08364e-07
-2.21625e-05 5.55749e-06 3.54092e-07
-1.69985e-05 3.38162e-07 1.66497e-07
-2.42777e-05 1.3904e-06 -8.37598e-08
-9.11243e-06 6.42988e-07 -1.56749e-08
-3.08234e-05 4.19588e-06 -6.29882e-07
-7.48547e-06 7.66357e-07 3.53787e-07
-5.20602e-05 1.05041e-05 -1.2473e-07
0.00218501 -7.3374e-06 0.000173267
-5.652e-05 1.30138e-05 -1.33035e-06
-5.03773e-05 9.53265e-06 4.9684e-07
-5.61025e-05 1.35674e-05 2.73218e-07
0.00181158 -0.000357236 -0.000284945
-8.24176e-06 2.57055e-07 1.14227e-07
-2.07924e-05 5.69777e-06 -1.12749e-07
-4.50884e-05 1.04113e-05 -1.04537e-06
-3.26787e-05 6.82595e-06 -8.49267e-07
-3.79197e-05 3.53083e-06 2.86178e-07
-6.72884e-05 5.12115e-06 1.1292e-06
-2.96932e-05 2.67708e-06 3.80441e-07
-3.68945e-05 4.42717e-06 -1.4321e-07
-1.41965e-05 1.83671e-07 1.12223e-07
-2.14984e-05 1.05321e-06 4.96815e-07
-7.21965e-06 8.08721e-07 3.11834e-07
-8.60462e-06 1.0495e-06 3.4887e-07
-3.78669e-05 8.2831e-06 1.41724e-07
-4.62884e-05 1.88256e-06 7.99344e-07
-3.78405e-05 8.29511e-06 -2.61745e-07
-2.92225e-05 3.37178e-06 3.57796e-07
-4.62551e-05 6.49019e-06 5.5769e-08
0.00198966 -0.000469634 -0.000134772
-9.60917e-06 -2.68588e-07 3.44769e-07
0.00166995 -0.000566478 0.000167809
-1.87461e-05 1.03349e-06 2.96207e-07
-3.02245e-05 1.77129e-06 4.66636e-07
-6.24248e-05 4.47413e-06 1.34111e-06
-2.8705e-05 4.26444e-06 3.49142e-07
-2.35386e-05 4.94418e-06 5.19234e-07
-1.84115e-05 3.95547e-06 3.99388e-07
-5.55134e-06 -1.52061e-07 2.03179e-07
-3.00222e-05 6.46648e-06 3.80547e-07
-3.7826e-05 8.32814e-06 -7.1654e-07
-4.58725e-05 5.4296e-06 1.48922e-07
-2.27185e-05 3.11209e-06 -2.06694e-07
-9.13591e-06 7.82345e-07 3.81359e-07
-3.27644e-05 8.53239e-06 -7.93329e-07
-3.0139e-05 1.08312e-07 1.05034e-06
-2.40115e-05 2.65203e-06 3.74987e-07
-5.416e-05 8.57543e-06 4.17962e-07
-2.58076e-05 2.33571e-06 4.63843e-08
-4.78997e-05 1.05835e-05 -6.30372e-07
-2.4232e-05 2.01675e-06 3.56603e-07
-3.16921e-05 7.81186e-06 2.92929e-07
-1.70564e-05 3.49209e-07 4.22508e-07
0.00179502 0.000189589 0.000662882
-1.8913e-05 1.22658e-06 -9.71255e-08
-1.55593e-05 3.30065e-06 3.0543e-07
-5.00538e-05 1.49529e-06 1.55665e-06
-2.21847e-05 1.38095e-06 3.94934e-07
-1.31246e-05 2.29936e-06 4.38398e-07
-4.48848e-05 1.46376e-06 1.29074e-06
0.00282243 -0.000911628 -1.35881e-05
0.00227342 0.000474296 -0.000809968
-2.16917e-05 1.27262e-06 3.58795e-07
-6.56935e-05 4.26111e-06 1.28387e-06
-1.17897e-05 2.36156e-06 2.99083e-07
-3.90238e-05 7.93767e-06 -3.53631e-07
-4.95637e-05 1.40875e-06 1.48361e-06
-2.65164e-05 2.80022e-06 -3.09232e-07
-4.60273e-05 9.1573e-06 7.91209e-08
0.000817975 0.000593648 -8.84593e-05
-3.97522e-05 5.89306e-06 2.19497e-07
-3.70723e-06 5.59914e-07 7.57627e-08
0.000884008 5.87266e-05 -0.000845941
-9.73992e-06 9.14992e-07 -1.54214e-07
0.00283354 -0.000763582 2.46582e-05
-4.5727e-05 8.11915e-06 1.90236e-08
-2.64908e-05 4.9168e-06 4.02886e-08
0.000724583 -0.000938742 0.000301534
-2.08966e-05 2.28369e-06 5.46234e-07
0.000732043 0.000878191 -0.000168134
-1.05015e-05 3.16021e-06 -2.1949e-08
-1.43618e-05 2.48159e-06 -2.35151e-07
-2.28068e-05 9.19098e-07 4.24205e-07
-3.98967e-05 9.69975e-06 -4.1723e-07
-6.14667e-06 1.21278e-06 1.21847e-07
0.00049286 -0.000386611 0.000598677
-4.3544e-05 2.09985e-06 1.42153e-06
-4.84865e-06 1.06424e-06 5.3845e-08
-1.02312e-05 3.16078e-06 -1.62969e-07
0.000275619 -0.000698575 0.000806173
-3.54429e-05 5.02249e-06 4.63858e-08
-3.9861e-05 6.79451e-06 -3.16501e-08
-1.06784e-05 3.24704e-06 -1.05581e-07
-1.32974e-05 2.74185e-06 4.95211e-08
-4.10457e-06 3.16364e-09 2.19506e-07
0.00162476 0.000868865 6.4805e-05
0.000606725 -0.00070717 0.00036797
0.000527702 -0.000962818 0.00039306
-3.44292e-05 4.98056e-06 1.41638e-07
-1.28277e-05 2.13936e-06 -6.54397e-08
-1.99663e-05 1.20724e-06 4.14699e-07
-1.40157e-05 2.81493e-06 -4.72303e-07
0.000725037 0.00047238 1.63851e-05
0.00088143 0.000564993 -0.000419374
-2.88617e-06 5.96139e-08 2.10093e-07
-4.84354e-06 -2.25643e-08 1.96716e-07
-3.37295e-05 5.35509e-06 -8.81456e-07
-5.51639e-06 -3.89934e-08 2.02365e-07
0.00118275 -0.000257942 -0.000388541
-3.61511e-05 6.66359e-06 -9.6727e-07
-1.04787e-05 1.08315e-06 9.59947e-08
-3.73385e-05 1.00633e-05 2.51738e-07
-3.96248e-06 -5.15957e-08 5.14014e-08
-3.21422e-05 5.34598e-06 -9.55886e-07
-1.24539e-05 2.75537e-06 -4.13904e-07