# vtk DataFile Version 4.2
vtk output
ASCII
DATASET UNSTRUCTURED_GRID

POINTS 343 double
0.00161169 0.00421627 -2.06264e-05
0.00311702 0.00502405 0.00213527
0 0.00419538 0.00112517
0.00277474 0.00199116 0.0019066
0.00744705 0.00251147 0.00493945
0.00744364 0.00393238 0.00630398
0.010975 0.00492948 0.00486331
0.00896138 0.004975 0.00358128
0.00984621 0.00342733 0.00679052
0.00717986 0.00509075 0.00491006
0.00602 0.00120232 0.00992124
0.0076061 0.00218704 0.00780742
0.0060398 7.79845e-05 0.00824094
0.00289045 0.00204018 0.00799672
0.00616756 0.0026175 0.00991897
0.0100049 0.00658466 0.00682098
0.00922641 0.00630968 0.00506845
0.00324951 0.00222774 0.00510486
0 0.00143586 0.00417514
0.00228979 0.00349619 0.00400773
0.00985246 0.00333356 0.0030413
0.0111648 0.00237439 0.00492596
0 0.00270918 0.00154168
0.00599744 0.0015139 -7.16449e-05
0.00721876 0.00228989 0.00210916
0.00570511 0.00360533 0.00153301
0.00193527 2.44052e-05 0.00403555
0.00603675 7.86004e-05 0.00161369
0.00377304 0.00700237 -4.59864e-05
0.00277801 0.00808954 0.00190889
0.00587804 0.00632768 0.00157261
0.0115059 0.00814316 0.00785078
0.0114653 0.00497699 0.00787636
0.0120682 0.00624874 0.00579699
0.0143704 0.00901927 0.00401818
0.0108965 0.00778559 0.00482878
0.0123138 0.0101497 0.004016
0.011476 0.00812972 0.00187762
0.00508576 0.00310502 0.00689569
0.00638294 0.00374845 0.00824196
0.00560584 0.00167869 0.00589876
0.00718907 0.0077649 0.00758517
0.00285083 0.00804545 0.0079535
0.00405178 0.0100502 0.00707551
0.00562145 0.00847435 0.00588652
0 0.00695361 0.00262895
0.0023617 0.00627048 0.0040576
0 0.0040177 0.00850214
0.00332175 0.0050292 0.00761948
0.0020555 0.00420083 0.0099739
0.0103143 0.00725864 0.00986465
0.00879693 0.00609088 0.00830468
0.00294153 0.00798036 0.00470407
0.00436896 0.00700142 0.00641277
0.00227613 0.00610833 0.00589688
0.0143649 0.0059853 0.00812818
0 0.00718191 0.00711644
0.00227369 0.00580399 -2.88525e-05
0 0.00577432 0.00158701
0.0143663 0.00735614 0.00693128
0.00411981 0.00340366 0.00994564
0.0143642 0.00162369 0.00400084
0.011591 0.00211154 0.0018404
0.0120852 0.00367488 0.00385063
0.00536733 0.00172295 0.00406062
0.00216014 0.0100277 0.00578716
0.0040484 5.2529e-05 0.00707714
0.00879261 0.00429295 0.00826322
0.0143666 0.00745031 0.00402099
0.012306 0.000157331 0.00401743
0.0048131 0.00293617 -5.78813e-05
0.00388311 0.00159113 0.00994898
0.00406384 5.29894e-05 0.00278075
0.00689843 0.00528762 0.00746623
0.00454336 0.00320765 0.00310942
0 0.00849157 0.00581511
0.00700423 0.00376644 0.00369872
0.00220911 0.00273781 -2.79471e-05
0.00832913 0.00842767 0.00989016
0.00859111 0.0101048 0.00839496
0.0060445 0.0100744 0.00823977
0.005765 0.00857493 0.00992357
0.0143678 0.00866142 0.0056333
0.00452028 0.00689451 0.00309259
0 0.00748929 0.00137438
0.00196833 0.007515 -2.51434e-05
0 0.00287343 0.00335182
0 0.00580816 0.00831736
0 0.00429792 0.00253898
0.00364347 0.00434525 -4.43904e-05
0.002055 0.00584567 0.0099738
0.00743877 0.00656961 0.00630613
0.00517404 0.006578 0.0081673
0.00998524 0.00275442 0.00986922
0.0115302 0.00210569 0.00788784
0.0100193 0.000129095 0.00295978
0.00865188 0.00177616 0.0035063
0.0143648 0.0030574 0.00317909
0 0.00140616 0.00256446
0.00915879 0.00834101 0.00630521
0.0083649 0.0015443 -9.89301e-05
0.00867802 0.00366336 0.00149841
0.0045267 0.010056 0.00576677
0.0123043 0.0101498 0.00567794
0.00368034 0.00145415 -4.47093e-05
0.00859004 0.000111393 0.00139027
0.00902828 0.00839976 0.00350511
0.0122974 0.000157239 0.00567927
0.00891705 0.00178776 0.00625323
0.00201248 0.00258961 0.00997433
0.0102359 0.00730915 -0.000121656
0.00742587 0.00778335 0.00207694
0.00854412 0.0062014 0.00149822
0 0.00686719 0.00578184
0.0143675 0.00159467 0.00239476
0.0025442 0.00364304 0.00637549
0.0143721 0.00865646 0.0024519
0.012092 0.00633949 0.00398439
0.00859704 0.0101055 0.00138854
0.0100145 0.000128797 0.00680068
0.014363 0.00162286 0.00563877
0.0120681 0.00372595 0.00590917
0.00215968 2.72226e-05 0.00578796
0 0.0013659 0.00748679
0.00196002 2.47661e-05 0.00750452
0.0143654 0.00704282 0.00559948
0.00836338 0.00859581 -0.000100372
0 0.0075208 0.00859127
0.00195529 0.00751152 0.00997511
0.00607652 0.00828183 0.00355092
0.0123524 0.010149 0.00735356
0.0143698 0.00879943 0.00733913
0.00829113 0.00169337 0.00989134
0.0104297 0.00431929 0.00986306
0 0.0057735 0.00666667
0.00196089 0.0100251 0.00750359
0 0.00863025 0.00752641
0.0123473 0.000159374 0.00235861
0.0143684 0.00713031 0.0024577
0.0121634 0.00649284 0.00201702
0.0122308 0.00597543 0.00984049
0.0107609 0.00151221 0.00985957
0.0123451 0.000158935 0.00735546
0.0143643 0.00155327 0.0073011
0 0.00143551 0.00581971
0.00858387 0.00011074 0.00839601
0.00604959 7.8523e-05 0.0033245
0.0114089 0.00485188 0.00189777
0.0143663 0.00447918 0.00236931
0.00606973 0.0100746 0.00658868
0.00406614 0.0100501 0.00277932
0.00188043 2.39754e-05 0.00239428
0 0.00727418 0.00419576
0.0143641 0.0059512 0.00648221
0.0100266 0.0101224 0.00295783
0.01079 0.00876781 0.00985828
0 0.00574334 0.00336387
0 0.0043297 0.00416652
0.00986908 0.00590694 0.00987051
0.0143623 0.00320552 0.00673207
0.00606446 7.85799e-05 0.00659035
0.00355223 0.010044 0.00856547
0.0107654 0.00150562 -0.00012638
0.00829282 0.00676995 0.00989083
0.0143686 0.00769393 0.00840043
0.0123752 0.00770412 0.00983801
0.00994271 0.00315018 -0.000117016
0.00483064 0.00580589 -5.82793e-05
0.0108287 0.00876384 -0.000128056
0.0108105 0.0101316 0.00125688
0.00831381 0.00697158 -9.934e-05
0.0100271 0.00649665 0.00291039
0.0108034 0.000140435 0.001258
0.00413573 0.00505092 0.00994559
0.00621494 0.00591154 0.00991797
0.00621363 0.00424478 0.00991817
0.0108054 0.0101301 0.00847633
0.00354909 4.57495e-05 0.00856674
0.0143659 0.00592194 0.00319118
0 0.00302218 0.00691532
0.0143639 0.0041996 0.00831176
0.0122284 0.00417352 -0.00014255
0.0143691 0.0028937 0.001377
0 0.00244495 0.00857025
0.00350573 0.00861407 0.00995387
0.0107979 0.000139612 0.00847776
0.0121985 0.00277856 0.00984082
0.0127209 0.00435395 0.00983342
0.00814822 0.0100997 0.00572986
0.00745067 0.00767679 0.00493844
0.00810966 0.0100991 0.00411293
0.0100216 0.0101222 0.00679925
0.00433478 0.00697036 0.00994287
0.00598597 0.00440722 -7.14449e-05
0.00406714 5.25763e-05 0.00435362
0.00452292 5.87516e-05 0.00576893
0.0143706 0.0043774 0.000961573
0.00522479 0.00840349 0.00152303
0.014364 0.00451032 0.00399115
0.00958678 0.005894 -0.000113966
0.0123547 0.0101499 0.00235719
0 0.00848692 0.00262374
0.00193547 0.0100251 0.00403473
0 0.00885053 0.00419359
0.00602737 0.00892591 -7.29563e-05
0.00604136 0.0100743 0.00161237
0.00718248 0.00488354 0.00229059
0.0103816 0.00465354 -0.000122271
0.00810269 0.000104706 0.00411542
0.00814168 0.000105244 0.00573182
0.00188028 0.0100241 0.00239332
0.0123257 0.00260392 -0.000143996
0.0143626 0.00470234 0.00703434
0.0102287 0.0101249 0.00487181
0.00824718 0.00346844 0.00989153
0.00352642 4.62359e-05 0.00131248
0.014365 0.00263017 0.00837956
0.00343447 0.00483522 0.00495622
0.00838549 0.00443751 -9.92219e-05
0.0119643 0.00595717 -0.000139553
0.00787227 0.0100963 0.00711949
0.0143623 0.00451065 0.00565268
0.00776604 0.0100952 0.00267876
0.0102216 0.000131388 0.00487343
0.00406958 0.0100503 0.00435157
0 0.00452174 0.00721958
0.00649061 0.00730101 0.00991421
0.00786572 0.000101672 0.0071206
0.00517215 0.00514038 0.00353067
0.00610629 0.0100748 0.00493
0.0061009 7.93211e-05 0.00493252
0.00526804 0.00528397 0.00610807
0 0.005744 0.00499998
0 0.00433013 0.00583333
0.00718669 0.00583585 -8.57059e-05
0.0071616 0.00643006 0.00346406
0.00775933 0.000100447 0.00268065
0.0143642 0.00592127 0.00482135
0.00529741 0.00647583 0.00477666
0.00824896 0.00510336 0.00989144
0.0143703 0.00595203 0.00142161
0 0.00666667 0
0.01236 0.00767266 -0.00014427
0.00478618 6.29366e-05 -5.74435e-05
0 0.01 0.00666667
0.00718283 0.0100871 0.00990549
0 0.00288419 0.00499914
0.014373 0.00766378 0.00120917
0.0143766 0.00684222 -0.000162688
0 0.005 0.01
0.00718385 0.00297726 -8.52774e-05
0 0.005 0
0.0143706 0.000191977 0.00316158
0.0143769 0.0101644 0.00648131
0.00602938 0.00735066 -7.25877e-05
0.014363 0.00306834 0.00482126
0.00718474 9.43501e-05 -8.57082e-05
0 0 0.00666667
0.00545196 0.00368651 0.00515746
0.00717713 9.26357e-05 0.00990663
0.0143683 0.000191418 0.00648346
0 0 0.005
0.0126333 0.0101521 0.00107103
0.0143776 0.00894929 0.00105549
0.0143687 0.000191389 0.00482197
0.0143755 0.00518035 -0.000161541
0.00174782 0.00124255 -2.21151e-05
0 0.00122008 0.00122008
0 0.00333333 0.01
0 0.00666667 0.01
0.0126333 0.00893302 -0.000147407
0.0143788 0.010164 0.00315912
0.00605447 0.0100742 0.00332229
0.0143724 0.00684163 0.00980426
0 0.00333333 0
0 0.00122008 0.00877992
0.00174592 2.20859e-05 0.00875828
0.00174571 0.00124209 0.00997772
0.0126273 0.0101506 0.00861499
0.00174657 0.00880203 0.00997762
0 0.00877992 0.00877992
0.0143727 0.0089479 0.00858878
0.0095918 0.0101168 -0.000115374
0.014372 0.00140991 0.0010555
0.00174704 0.0100221 0.00875762
0.0126262 0.00893084 0.00983382
0.0143711 0.00517884 0.00980485
0 0 0.00333333
0.00958409 0.000125328 -0.000113469
0.0126254 0.000164785 0.00107138
0.0017355 2.23072e-05 0.0011898
0 0.00877992 0.00122008
0.00174702 0.00880268 -2.23833e-05
0.00173515 0.0100221 0.00118892
0.0143671 0.00140837 0.0085895
0.0126207 0.00138331 0.00983487
0.00957543 0.000123727 0.00987539
0.0126279 0.00138517 -0.000146998
0.0126199 0.00016357 0.00861653
0.0143755 0.00351769 -0.000161267
0.00478418 0.0100582 0.00993681
0.00352793 0.0100436 0.00131138
0.00958309 0.0101155 0.00987438
0.0143698 0.00351561 0.00980467
0 0.01 0.005
0.00376606 0.00853491 -4.6183e-05
0.014377 0.0101642 0.00482156
0 0.01 0.00333333
0 0.00166667 0
0.0143743 0.000191854 0.00150042
0 0.00166667 0.01
0 0.00833333 0
0.0143808 0.00850508 -0.000163294
0.0143699 0.00019104 0.00814538
0.0143828 0.010166 0.00150029
0.0143783 0.0101647 0.00814372
0.00238835 0.0100292 0.00996906
0 0.01 0.00833333
0.0119941 0.0101443 -0.00014141
0.011986 0.000157516 -0.000140614
0.0119785 0.000155632 0.00984412
0.0119861 0.0101424 0.00984289
0 0 0.00833333
0.0143758 0.008502 0.00980522
0.00238937 3.15357e-05 -2.96759e-05
0 0 0.00166667
0.0047891 0.0100591 -5.85375e-05
0.0143708 0.00185444 0.00980592
0.0143769 0.00185656 -0.000162102
0.00238607 3.05934e-05 0.00996966
0.00238941 0.0100299 -3.02395e-05
0 0.01 0.00166667
0.0143813 0.0101663 0.00980663
0 0 0.01
0.0143877 0.010167 -0.000164566
0.0143734 0.00018987 0.00980852
0 0.01 0.01
0.01438 0.000191584 -0.000163691
0 0.01 0
0 0 0
0.0071903 0.010088 -8.7341e-05
0.00478023 6.16983e-05 0.00993754
0 0.00833333 0.01

CELLS 343 686
1 0
1 1
1 2
1 3
1 4
1 5
1 6
1 7
1 8
1 9
1 10
1 11
1 12
1 13
1 14
1 15
1 16
1 17
1 18
1 19
1 20
1 21
1 22
1 23
1 24
1 25
1 26
1 27
1 28
1 29
1 30
1 31
1 32
1 33
1 34
1 35
1 36
1 37
1 38
1 39
1 40
1 41
1 42
1 43
1 44
1 45
1 46
1 47
1 48
1 49
1 50
1 51
1 52
1 53
1 54
1 55
1 56
1 57
1 58
1 59
1 60
1 61
1 62
1 63
1 64
1 65
1 66
1 67
1 68
1 69
1 70
1 71
1 72
1 73
1 74
1 75
1 76
1 77
1 78
1 79
1 80
1 81
1 82
1 83
1 84
1 85
1 86
1 87
1 88
1 89
1 90
1 91
1 92
1 93
1 94
1 95
1 96
1 97
1 98
1 99
1 100
1 101
1 102
1 103
1 104
1 105
1 106
1 107
1 108
1 109
1 110
1 111
1 112
1 113
1 114
1 115
1 116
1 117
1 118
1 119
1 120
1 121
1 122
1 123
1 124
1 125
1 126
1 127
1 128
1 129
1 130
1 131
1 132
1 133
1 134
1 135
1 136
1 137
1 138
1 139
1 140
1 141
1 142
1 143
1 144
1 145
1 146
1 147
1 148
1 149
1 150
1 151
1 152
1 153
1 154
1 155
1 156
1 157
1 158
1 159
1 160
1 161
1 162
1 163
1 164
1 165
1 166
1 167
1 168
1 169
1 170
1 171
1 172
1 173
1 174
1 175
1 176
1 177
1 178
1 179
1 180
1 181
1 182
1 183
1 184
1 185
1 186
1 187
1 188
1 189
1 190
1 191
1 192
1 193
1 194
1 195
1 196
1 197
1 198
1 199
1 200
1 201
1 202
1 203
1 204
1 205
1 206
1 207
1 208
1 209
1 210
1 211
1 212
1 213
1 214
1 215
1 216
1 217
1 218
1 219
1 220
1 221
1 222
1 223
1 224
1 225
1 226
1 227
1 228
1 229
1 230
1 231
1 232
1 233
1 234
1 235
1 236
1 237
1 238
1 239
1 240
1 241
1 242
1 243
1 244
1 245
1 246
1 247
1 248
1 249
1 250
1 251
1 252
1 253
1 254
1 255
1 256
1 257
1 258
1 259
1 260
1 261
1 262
1 263
1 264
1 265
1 266
1 267
1 268
1 269
1 270
1 271
1 272
1 273
1 274
1 275
1 276
1 277
1 278
1 279
1 280
1 281
1 282
1 283
1 284
1 285
1 286
1 287
1 288
1 289
1 290
1 291
1 292
1 293
1 294
1 295
1 296
1 297
1 298
1 299
1 300
1 301
1 302
1 303
1 304
1 305
1 306
1 307
1 308
1 309
1 310
1 311
1 312
1 313
1 314
1 315
1 316
1 317
1 318
1 319
1 320
1 321
1 322
1 323
1 324
1 325
1 326
1 327
1 328
1 329
1 330
1 331
1 332
1 333
1 334
1 335
1 336
1 337
1 338
1 339
1 340
1 341
1 342

CELL_TYPES 343
1
1
1
1
1
1
1
1
1
1
1
1
1
1
1
1
1
1
1
1
1
1
1
1
1
1
1
1
1
1
1
1
1
1
1
1
1
1
1
1
1
1
1
1
1
1
1
1
1
1
1
1
1
1
1
1
1
1
1
1
1
1
1
1
1
1
1
1
1
1
1
1
1
1
1
1
1
1
1
1
1
1
1
1
1
1
1
1
1
1
1
1
1
1
1
1
1
1
1
1
1
1
1
1
1
1
1
1
1
1
1
1
1
1
1
1
1
1
1
1
1
1
1
1
1
1
1
1
1
1
1
1
1
1
1
1
1
1
1
1
1
1
1
1
1
1
1
1
1
1
1
1
1
1
1
1
1
1
1
1
1
1
1
1
1
1
1
1
1
1
1
1
1
1
1
1
1
1
1
1
1
1
1
1
1
1
1
1
1
1
1
1
1
1
1
1
1
1
1
1
1
1
1
1
1
1
1
1
1
1
1
1
1
1
1
1
1
1
1
1
1
1
1
1
1
1
1
1
1
1
1
1
1
1
1
1
1
1
1
1
1
1
1
1
1
1
1
1
1
1
1
1
1
1
1
1
1
1
1
1
1
1
1
1
1
1
1
1
1
1
1
1
1
1
1
1
1
1
1
1
1
1
1
1
1
1
1
1
1
1
1
1
1
1
1
1
1
1
1
1
1
1
1
1
1
1
1
1
1
1
1
1
1
1
1
1
1
1
1
1
1
1
1
1
1
1
1
1
1
1
1
1
1
1
1
1
1
1
1
1
1
1
1

POINT_DATA 343
FIELD FieldData 8

NodeID_(#) 1 343 int
0
1
2
3
4
5
6
7
8
9
10
11
12
13
14
15
16
17
18
19
20
21
22
23
24
25
26
27
28
29
30
31
32
33
34
35
36
37
38
39
40
41
42
43
44
45
46
47
48
49
50
51
52
53
54
55
56
57
58
59
60
61
62
63
64
65
66
67
68
69
70
71
72
73
74
75
76
77
78
79
80
81
82
83
84
85
86
87
88
89
90
91
92
93
94
95
96
97
98
99
100
101
102
103
104
105
106
107
108
109
110
111
112
113
114
115
116
117
118
119
120
121
122
123
124
125
126
127
128
129
130
131
132
133
134
135
136
137
138
139
140
141
142
143
144
145
146
147
148
149
150
151
152
153
154
155
156
157
158
159
160
161
162
163
164
165
166
167
168
169
170
171
172
173
174
175
176
177
178
179
180
181
182
183
184
185
186
187
188
189
190
191
192
193
194
195
196
197
198
199
200
201
202
203
204
205
206
207
208
209
210
211
212
213
214
215
216
217
218
219
220
221
222
223
224
225
226
227
228
229
230
231
232
233
234
235
236
237
238
239
240
241
242
243
244
245
246
247
248
249
250
251
252
253
254
255
256
257
258
259
260
261
262
263
264
265
266
267
268
269
270
271
272
273
274
275
276
277
278
279
280
281
282
283
284
285
286
287
288
289
290
291
292
293
294
295
296
297
298
299
300
301
302
303
304
305
306
307
308
309
310
311
312
313
314
315
316
317
318
319
320
321
322
323
324
325
326
327
328
329
330
331
332
333
334
335
336
337
338
339
340
341
342

Component_(#) 1 343 int
0
0
0
0
0
0
0
0
0
0
0
0
0
0
0
0
0
0
0
0
0
0
0
0
0
0
0
0
0
0
0
0
0
0
0
0
0
0
0
0
0
0
0
0
0
0
0
0
0
0
0
0
0
0
0
0
0
0
0
0
0
0
0
0
0
0
0
0
0
0
0
0
0
0
0
0
0
0
0
0
0
0
0
0
0
0
0
0
0
0
0
0
0
0
0
0
0
0
0
0
0
0
0
0
0
0
0
0
0
0
0
0
0
0
0
0
0
0
0
0
0
0
0
0
0
0
0
0
0
0
0
0
0
0
0
0
0
0
0
0
0
0
0
0
0
0
0
0
0
0
0
0
0
0
0
0
0
0
0
0
0
0
0
0
0
0
0
0
0
0
0
0
0
0
0
0
0
0
0
0
0
0
0
0
0
0
0
0
0
0
0
0
0
0
0
0
0
0
0
0
0
0
0
0
0
0
0
0
0
0
0
0
0
0
0
0
0
0
0
0
0
0
0
0
0
0
0
0
0
0
0
0
0
0
0
0
0
0
0
0
0
0
0
0
0
0
0
0
0
0
0
0
0
0
0
0
0
0
0
0
0
0
0
0
0
0
0
0
0
0
0
0
0
0
0
0
0
0
0
0
0
0
0
0
0
0
0
0
0
0
0
0
0
0
0
0
0
0
0
0
0
0
0
0
0
0
0
0
0
0
0
0
0
0
0
0
0
0
0
0
0
0
0
0
0
0
0
0
0
0
0
0
0
0
0
0
0
0
0
0
0
0
0

NodalMass_(kg) 1 343 double
3.15563e-06
1.41304e-05
2.20912e-06
1.71484e-05
8.42e-06
9.09306e-06
1.01179e-05
7.52198e-06
6.81096e-06
5.58223e-06
3.10888e-06
1.07575e-05
4.87011e-06
1.64955e-05
3.0246e-06
8.05984e-06
6.703e-06
1.0877e-05
4.18978e-06
8.16106e-06
6.14143e-06
1.17902e-05
2.23114e-06
4.25176e-06
1.09915e-05
7.41467e-06
4.21871e-06
3.92484e-06
3.08766e-06
1.31268e-05
7.72627e-06
1.65404e-05
1.19037e-05
7.97564e-06
3.81683e-06
1.11001e-05
3.81317e-06
1.39137e-05
6.37414e-06
8.00975e-06
7.6712e-06
1.21135e-05
1.6399e-05
2.78633e-06
8.93599e-06
2.58087e-06
7.57362e-06
4.23241e-06
1.31286e-05
3.80168e-06
2.7746e-06
7.16776e-06
1.21307e-05
5.11765e-06
8.19728e-06
4.58094e-06
2.79503e-06
3.26126e-06
4.12443e-06
2.11915e-06
3.35177e-06
3.61669e-06
1.56838e-05
7.33679e-06
8.24695e-06
5.00369e-06
2.82625e-06
7.20276e-06
3.26815e-06
4.18751e-06
2.02785e-06
2.42152e-06
3.11835e-06
5.97459e-06
5.87101e-06
4.09374e-06
5.45463e-06
2.28825e-06
4.49759e-06
4.38192e-06
4.50892e-06
4.39234e-06
4.27273e-06
5.32031e-06
1.53201e-06
2.38869e-06
2.02885e-06
4.38798e-06
3.17972e-06
3.14298e-06
4.61567e-06
5.87645e-06
8.18088e-06
2.48341e-06
1.53815e-05
3.49683e-06
7.35227e-06
2.01314e-06
2.0408e-06
7.98183e-06
4.41293e-06
7.1389e-06
1.20123e-06
5.03343e-06
1.61257e-06
4.12601e-06
8.73748e-06
4.37849e-06
7.97173e-06
2.13557e-06
3.38137e-06
9.48623e-06
7.40262e-06
1.80226e-06
2.10222e-06
7.98889e-06
1.87983e-06
7.44814e-06
4.19782e-06
2.37156e-06
4.31705e-06
6.06441e-06
4.30905e-06
2.16843e-06
1.8986e-06
1.81294e-06
3.89762e-06
2.44299e-06
1.65628e-06
8.01374e-06
1.64513e-06
2.3931e-06
3.01363e-06
2.99431e-06
1.36541e-06
1.87293e-06
2.09622e-06
1.94762e-06
1.87618e-06
6.37913e-06
4.58628e-06
2.02767e-06
1.61999e-06
2.41284e-06
3.8865e-06
4.44973e-06
2.29839e-06
1.17349e-05
3.11811e-06
1.354e-06
3.45063e-06
1.81846e-06
2.9382e-06
1.37381e-06
2.41464e-06
2.10451e-06
2.63927e-06
2.14166e-06
1.7943e-06
3.19976e-06
1.36989e-06
2.43489e-06
2.08158e-06
1.3601e-06
2.17203e-06
1.89924e-06
3.16996e-06
2.6119e-06
2.37677e-06
1.60225e-06
1.90684e-06
5.49206e-06
1.87878e-06
3.14313e-06
2.97301e-06
1.18454e-06
1.89263e-06
2.04166e-06
2.73572e-06
2.42405e-06
3.23083e-06
3.19752e-06
3.2142e-06
1.94492e-06
1.61196e-06
1.86876e-06
3.22435e-06
2.1114e-06
2.96917e-06
6.15288e-06
2.3097e-06
2.39729e-06
2.38029e-06
2.64508e-06
1.66557e-06
1.82377e-06
2.06583e-06
5.73271e-06
2.08467e-06
2.18324e-06
2.43522e-06
3.1188e-06
3.17316e-06
2.05447e-06
1.9592e-06
3.05718e-06
6.44327e-06
2.08796e-06
2.72615e-06
2.15709e-06
1.86812e-06
2.0028e-06
2.10999e-06
2.88994e-06
2.3222e-06
2.3979e-06
1.97629e-06
6.4127e-06
2.16225e-06
3.29198e-06
2.10223e-06
2.66566e-06
1.94415e-06
2.91865e-06
2.58116e-06
2.11703e-06
2.09534e-06
1.91719e-06
7.06046e-06
2.25203e-06
2.06378e-06
6.28159e-06
2.12147e-06
2.90924e-06
2.12921e-06
6.4487e-06
1.41701e-06
2.0682e-06
6.58062e-06
2.52584e-06
2.39732e-06
7.42191e-07
2.22368e-06
7.06751e-07
7.00657e-07
8.93749e-07
2.53536e-06
2.26535e-06
1.33607e-06
7.84725e-07
2.32303e-06
6.06694e-07
6.68276e-07
6.84307e-07
2.51242e-06
2.31629e-06
7.8367e-07
6.80839e-07
6.22692e-06
6.7471e-07
6.65305e-07
7.01158e-07
1.8232e-06
1.90695e-06
6.86722e-07
7.04792e-07
1.86445e-06
2.28572e-06
6.8045e-07
7.16005e-07
1.82373e-06
6.01079e-07
2.02791e-06
7.4579e-07
5.74423e-07
1.80052e-06
1.454e-06
2.2702e-06
1.80636e-06
2.15356e-06
1.79089e-06
1.79456e-06
6.8231e-07
2.24737e-06
1.45239e-06
1.79556e-06
6.97875e-07
6.24265e-07
6.62717e-07
1.44627e-06
1.40138e-06
2.15258e-06
1.82851e-06
1.3994e-06
1.43932e-06
2.19226e-06
6.97732e-07
1.77726e-06
1.79162e-06
6.54258e-07
7.3397e-07
2.34895e-06
7.10392e-07
6.56982e-07
6.26314e-07
2.18926e-06
6.12493e-07
6.03901e-07
5.92831e-07
5.12031e-07
5.11667e-07
4.9467e-07
4.97016e-07
4.96269e-07
5.33079e-07
4.94191e-07
4.97855e-07
4.86862e-07
4.90626e-07
4.94649e-07
4.94954e-07
4.91922e-07
4.89615e-07
4.96354e-07
4.95189e-07
4.82188e-07
1.10854e-06
5.3299e-07
5.44763e-07
5.36655e-07
5.15417e-07
5.01772e-07
5.53774e-07
5.53774e-07
5.53774e-07
5.53774e-07
5.53774e-07
5.53774e-07
5.50785e-07
5.50785e-07
7.45291e-07
7.11668e-07
4.9897e-07

NodalForce_(N) 3 343 double
-3.67934e-08 -8.80762e-09 -4.26139e-09
-1.34273e-07 -1.08825e-07 -6.77278e-08
0.000296876 1.98049e-05 0.000570015
-3.71799e-07 -9.78107e-08 -5.08393e-08
-2.04634e-07 -4.28933e-07 -4.16624e-07
1.87447e-07 -4.30607e-07 -5.35006e-07
7.40565e-08 -1.02975e-06 -1.33137e-06
-1.56427e-07 -5.32117e-07 -5.98899e-07
2.03672e-07 -5.58923e-07 -7.70364e-07
5.67548e-08 -2.48237e-07 -2.61282e-07
1.29147e-07 -1.05103e-07 -1.93778e-07
2.81385e-07 -5.45307e-07 -8.20378e-07
1.30525e-08 -1.5975e-07 -2.66597e-07
4.60297e-08 -7.25918e-08 -7.92637e-08
1.73476e-07 -9.8588e-08 -1.97414e-07
6.63974e-07 -6.628e-07 -9.67519e-07
2.25593e-07 -4.87849e-07 -6.05483e-07
-1.18703e-07 -9.25849e-08 -8.20904e-08
0.00082342 0.000620775 0.000324796
-5.59934e-08 -2.94258e-08 -2.79591e-08
-3.78487e-07 -5.22131e-07 -6.09366e-07
-3.77485e-07 -1.22718e-06 -1.60702e-06
0.00175764 -0.000356984 0.000370024
-4.21792e-07 -1.65558e-07 -2.00159e-07
-8.21932e-07 -5.4462e-07 -6.05705e-07
-3.73635e-07 -2.14281e-07 -2.82531e-07
-6.626e-08 -8.9534e-09 -9.9103e-09
-3.46688e-07 -1.57833e-07 -1.53578e-07
-8.80045e-08 -4.28168e-08 -5.70003e-08
5.80209e-08 -8.52876e-08 -5.7143e-08
-1.83077e-07 -2.36083e-07 -3.14202e-07
2.30896e-06 -1.69887e-06 -2.77044e-06
1.03751e-06 -1.26686e-06 -1.94532e-06
4.2399e-07 -9.46863e-07 -1.33516e-06
1.75154e-07 -5.8946e-07 -8.55642e-07
5.98217e-07 -1.07675e-06 -1.46167e-06
2.65358e-07 -4.41927e-07 -6.5379e-07
-2.3882e-07 -1.53575e-06 -2.04896e-06
5.11377e-08 -1.46782e-07 -1.66338e-07
3.46131e-07 -2.71656e-07 -4.70478e-07
-1.27632e-07 -2.28541e-07 -1.89123e-07
1.08705e-06 -5.12002e-07 -8.4398e-07
5.0049e-07 -7.38926e-08 -1.38451e-07
1.59968e-07 -3.78862e-08 -5.14744e-08
4.63062e-07 -2.47925e-07 -2.73504e-07
0.00103279 -1.70076e-05 -0.000336711
2.69258e-08 -3.58674e-08 -2.39198e-08
0.000379374 0.000562262 -0.000482512
2.52159e-07 -1.10535e-07 -1.27693e-07
6.56735e-08 -1.41105e-08 -1.79168e-08
4.45373e-07 -2.28644e-07 -4.29824e-07
7.00174e-07 -4.47786e-07 -7.72291e-07
1.87255e-07 -8.27373e-08 -7.24936e-08
1.46506e-07 -7.56698e-08 -9.07296e-08
8.18731e-08 -3.60945e-08 -3.31093e-08
4.87404e-07 -7.0405e-07 -1.11139e-06
0.000803189 -0.000274795 1.47159e-05
-4.44653e-08 -1.72157e-08 -1.67279e-08
0.00192391 -0.000599099 0.000678179
2.07071e-07 -3.25856e-07 -5.02915e-07
1.69075e-07 -4.71252e-08 -1.02278e-07
-2.72104e-07 -5.6428e-07 -7.92147e-07
-1.85022e-06 -1.77529e-06 -2.21821e-06
-3.03854e-07 -8.80415e-07 -1.1592e-06
-2.82414e-07 -2.41475e-07 -1.57901e-07
1.13617e-07 5.38067e-10 -2.13267e-08
-5.90696e-08 -4.13484e-08 -3.77274e-08
5.04927e-07 -4.57627e-07 -7.65067e-07
6.4896e-08 -5.12604e-07 -7.2608e-07
-3.90413e-07 -5.13231e-07 -6.79137e-07
-1.39135e-07 -4.54208e-08 -6.21845e-08
8.19312e-08 -2.90204e-08 -6.62318e-08
-1.4469e-07 -5.94632e-08 -3.90253e-08
3.13662e-07 -2.32711e-07 -3.67313e-07
-1.2296e-07 -1.02317e-07 -8.16043e-08
0.00132213 -0.000316992 -0.000513943
-1.49407e-07 -2.38211e-07 -2.37145e-07
-5.25533e-08 -4.63761e-09 -1.02896e-08
7.08512e-07 -2.45247e-07 -5.07706e-07
6.66553e-07 -2.52209e-07 -4.73273e-07
4.78774e-07 -1.42637e-07 -2.52385e-07
4.99277e-07 -1.22455e-07 -2.75691e-07
3.61518e-07 -6.54893e-07 -9.85706e-07
2.81278e-08 -9.79565e-08 -7.52427e-08
0.00120058 0.000366171 0.000215306
-1.12208e-08 -6.18856e-09 -6.74133e-09
0.00120927 -0.00013331 -0.00028601
0.00181791 -0.000240588 -0.000502173
0.001051 0.000786573 -0.000557431
-1.29384e-07 -3.76755e-08 -5.33833e-08
1.13995e-07 -1.32516e-08 -2.39271e-08
3.19169e-07 -2.74355e-07 -3.61169e-07
4.85085e-07 -1.54046e-07 -3.29027e-07
2.14771e-07 -2.00337e-07 -3.54081e-07
6.19602e-07 -1.63793e-06 -2.4943e-06
-3.87484e-07 -3.11755e-07 -3.54764e-07
-4.98011e-07 -5.04393e-07 -5.29474e-07
-1.50082e-07 -3.16847e-07 -4.39121e-07
0.00179702 0.000809684 -4.32939e-05
7.23404e-07 -5.53116e-07 -7.74927e-07
-6.09187e-07 -2.95553e-07 -3.80977e-07
-5.78433e-07 -4.84209e-07 -6.11123e-07
6.21591e-08 -2.05133e-08 -2.2696e-08
5.79169e-07 -5.65029e-07 -8.83493e-07
-1.00074e-07 -2.68064e-08 -2.97415e-08
-5.35385e-07 -2.86553e-07 -3.39623e-07
2.43855e-07 -6.20315e-07 -7.43973e-07
-2.09864e-07 -5.29387e-07 -7.34401e-07
-4.82838e-08 -5.52701e-07 -6.97039e-07
2.12717e-08 -3.75589e-09 -8.84936e-09
-2.30271e-07 -3.14507e-07 -4.46658e-07
-5.89414e-08 -4.89123e-07 -5.91084e-07
-3.25087e-07 -4.86716e-07 -6.39619e-07
0.000671826 0.000395652 -0.000445276
-2.50863e-07 -3.31582e-07 -4.54025e-07
1.98019e-08 -3.55248e-08 -3.52084e-08
-4.41857e-09 -2.95589e-07 -4.22037e-07
4.40446e-08 -9.03745e-07 -1.18663e-06
3.24689e-08 -2.69988e-07 -3.90556e-07
-4.1872e-08 -2.00738e-07 -2.73077e-07
-1.31003e-07 -6.64414e-07 -9.68462e-07
9.14608e-08 -7.21151e-07 -1.00608e-06
-4.71194e-08 -1.02587e-08 -1.15722e-08
0.00145403 0.000168572 0.000405762
-9.06207e-09 -1.75289e-09 -1.58338e-09
1.02792e-07 -2.82826e-07 -4.16281e-07
-1.64107e-07 -2.55889e-07 -3.70534e-07
0.00168025 0.000477308 -0.000780983
4.66214e-08 5.13702e-10 -1.15169e-08
1.93689e-07 -2.79355e-07 -2.43e-07
2.62665e-07 -1.84866e-07 -3.0789e-07
3.18546e-07 -3.62189e-07 -5.78187e-07
1.94754e-07 -1.81876e-07 -3.18889e-07
3.42712e-07 -2.59772e-07 -4.60881e-07
0.00117562 -0.000150148 0.000424323
4.65311e-08 -3.20662e-09 -3.29717e-09
0.0014488 -0.000333329 0.000418068
-2.68285e-07 -2.43996e-07 -3.10509e-07
-5.19335e-08 -3.02506e-07 -4.153e-07
-2.78881e-07 -8.0263e-07 -1.02975e-06
7.02926e-07 -5.28458e-07 -9.05361e-07
1.46757e-07 -1.92954e-07 -3.25961e-07
-7.34587e-09 -1.9499e-07 -2.90004e-07
2.99753e-08 -3.65051e-07 -5.60849e-07
0.00108296 0.00055073 -0.000771897
6.22982e-08 -2.80496e-07 -4.48923e-07
-1.55064e-07 -8.96954e-08 -6.82791e-08
-8.3485e-07 -1.2967e-06 -1.64585e-06
-2.2893e-07 -4.94191e-07 -6.78532e-07
1.14707e-07 -4.39838e-08 -5.79413e-08
1.00417e-07 -4.21086e-08 -4.81015e-08
-3.38861e-08 -6.32545e-09 1.39045e-09
0.00230489 0.000729137 -1.82435e-05
8.62953e-08 -2.14237e-07 -3.1924e-07
9.70587e-08 -1.9976e-07 -2.69553e-07
3.93672e-07 -1.86289e-07 -3.55424e-07
0.00149114 0.000122866 -0.000687341
0.000984416 0.000827262 0.00178178
2.44662e-07 -1.37551e-07 -2.5751e-07
7.84843e-08 -4.97524e-07 -7.39051e-07
-3.14012e-08 -4.80092e-08 -5.01503e-08
1.59014e-07 -2.87804e-08 -4.70705e-08
-3.39812e-07 -2.12325e-07 -2.84489e-07
1.79519e-07 -7.48816e-08 -1.53264e-07
3.09667e-07 -3.28952e-07 -5.34947e-07
3.47895e-07 -2.16858e-07 -3.86654e-07
-4.17488e-07 -2.81319e-07 -3.79302e-07
-1.20029e-07 -5.37888e-08 -8.29754e-08
-1.20235e-07 -2.41072e-07 -3.51076e-07
6.93887e-10 -1.56306e-07 -2.25404e-07
-1.19352e-07 -1.2228e-07 -1.79286e-07
-8.02681e-08 -4.83373e-07 -5.85908e-07
-2.88627e-07 -1.91805e-07 -2.39247e-07
1.89129e-07 -2.9345e-08 -1.0467e-07
2.80677e-07 -8.20895e-08 -2.11709e-07
8.97989e-08 -3.37803e-08 -8.32083e-08
3.37273e-07 -1.69666e-07 -3.0033e-07
-4.99356e-09 -2.15657e-08 -3.11986e-08
-7.54444e-08 -4.36522e-07 -5.98462e-07
0.00182435 -9.04786e-05 0.000294147
2.65123e-07 -4.97055e-07 -7.79432e-07
-4.38761e-07 -4.03103e-07 -5.51675e-07
-4.05518e-07 -5.11928e-07 -6.92821e-07
0.00140027 -0.000184202 -0.0003173
1.15361e-07 -1.56613e-08 -4.56145e-08
4.15225e-08 -1.7812e-07 -2.81913e-07
3.21912e-07 -3.71813e-07 -6.25556e-07
2.67252e-07 -2.63395e-07 -4.38856e-07
2.80509e-07 -1.61449e-07 -2.16738e-07
2.74403e-07 -3.02259e-07 -3.33058e-07
1.39887e-07 -1.28448e-07 -1.55827e-07
3.19094e-07 -1.89195e-07 -2.91109e-07
1.77089e-07 -2.87974e-08 -9.39006e-08
-1.90236e-07 -8.47739e-08 -1.32246e-07
-5.83238e-08 -3.01701e-08 -1.35197e-08
-5.65609e-08 -3.62305e-08 -2.3093e-08
-2.32547e-07 -3.32592e-07 -4.52573e-07
-9.19018e-09 -1.6125e-07 -1.95074e-07
-5.92373e-08 -3.29193e-07 -4.59836e-07
-1.90861e-07 -1.85317e-07 -2.53913e-07
6.28081e-08 -2.88759e-07 -4.18843e-07
0.00152683 -0.000318311 -0.000110381
4.73461e-08 4.12012e-10 -1.06008e-08
0.00133758 -0.000640091 3.55471e-05
-4.7958e-08 -7.38374e-08 -1.07292e-07
4.70903e-08 -1.01292e-07 -1.40023e-07
-2.46962e-07 -2.91496e-07 -3.51452e-07
-2.34493e-07 -2.00378e-07 -2.72272e-07
-1.9655e-07 -1.69792e-07 -1.58857e-07
-8.00496e-08 -1.31192e-07 -1.43437e-07
1.84809e-08 4.85605e-10 -2.40072e-09
-3.2673e-07 -2.54226e-07 -3.45996e-07
1.19935e-07 -3.27899e-07 -4.94269e-07
2.52935e-07 -2.40873e-07 -3.43375e-07
2.01624e-07 -1.26482e-07 -2.4775e-07
-1.27778e-07 -4.13232e-08 -2.22659e-08
1.14466e-07 -3.01212e-07 -4.73551e-07
1.88991e-08 -6.6462e-08 -5.65673e-08
-2.12087e-07 -1.39098e-07 -1.98451e-07
-3.45968e-07 -4.1563e-07 -5.63505e-07
2.45344e-07 -1.05613e-07 -1.64795e-07
4.45347e-08 -4.1814e-07 -6.05919e-07
6.37894e-08 -1.03471e-07 -1.29481e-07
-1.89332e-07 -2.62892e-07 -3.23197e-07
9.85914e-08 -3.1525e-08 -3.13166e-08
0.00166525 0.000291724 0.000734889
2.40145e-07 -6.6922e-08 -1.60103e-07
-2.17064e-08 -1.06832e-07 -1.40797e-07
-3.9454e-08 -1.61998e-07 -1.30062e-07
1.40019e-07 -7.24651e-08 -7.76604e-08
-9.83334e-08 -7.74101e-08 -5.20513e-08
1.20708e-07 -1.43495e-07 -1.55258e-07
0.00200957 -0.00140398 8.34378e-05
0.00188556 0.000708579 -0.00117183
-1.46091e-07 -1.03606e-07 -1.53986e-07
1.14326e-08 -2.89569e-07 -2.96619e-07
-1.34949e-07 -8.43788e-08 -8.45508e-08
3.61818e-08 -3.27515e-07 -4.64845e-07
1.09054e-07 -1.56152e-07 -1.37216e-07
2.73711e-07 -1.32773e-07 -2.77714e-07
-1.79207e-07 -3.89187e-07 -5.27474e-07
0.000835726 0.000726647 2.2442e-05
-1.76061e-07 -2.84307e-07 -4.06449e-07
-6.5507e-08 -1.72244e-08 -2.3573e-08
0.00088753 -1.24775e-05 -0.000978013
1.40471e-07 -3.40272e-08 -8.43606e-08
0.0020552 -0.00114158 0.000148344
-1.18823e-07 -3.67739e-07 -5.04837e-07
-1.34829e-07 -2.18181e-07 -3.10477e-07
0.000774566 -0.00106603 0.000130013
-2.40033e-07 -1.14768e-07 -1.58366e-07
0.000762472 0.00120795 -4.89467e-05
-7.98873e-08 -1.03288e-07 -1.44337e-07
8.9548e-08 -9.86867e-08 -1.61698e-07
-1.02995e-07 -8.72542e-08 -1.3581e-07
-6.78042e-08 -3.62972e-07 -5.1686e-07
-1.06431e-07 -3.96194e-08 -5.35911e-08
0.000673995 -0.000159397 0.000797149
-2.36222e-08 -1.57024e-07 -1.37944e-07
2.33483e-08 -3.61278e-08 -6.12142e-08
-2.02212e-08 -1.01592e-07 -1.50717e-07
0.000424854 -0.000436523 0.00103178
-1.44396e-08 -2.29815e-07 -3.36947e-07
-6.66376e-08 -3.03433e-07 -4.30707e-07
-5.13563e-08 -1.05556e-07 -1.51566e-07
-8.99078e-08 -1.16858e-07 -1.61946e-07
-3.81645e-08 -6.34814e-09 -6.1911e-09
0.000981328 0.000532763 3.32885e-05
0.00066166 -0.000991475 0.000191868
0.000697858 -0.000981068 0.000119693
-1.06935e-07 -2.40791e-07 -3.47587e-07
2.46658e-08 -9.06381e-08 -1.35548e-07
8.25576e-08 -6.59693e-08 -6.64981e-08
1.23021e-07 -1.12532e-07 -1.90575e-07
0.000779346 0.000474689 0.000150299
0.000415446 0.000344844 -0.000525261
-2.11565e-09 -2.81916e-09 -7.70502e-09
1.30123e-08 -5.47091e-09 -6.26311e-09
3.46926e-07 -2.0864e-07 -3.70777e-07
5.79353e-08 -3.00463e-09 -1.33118e-08
0.000623775 -0.000204232 -0.000301366