# vtk DataFile Version 4.2
vtk output
ASCII
DATASET UNSTRUCTURED_GRID

POINTS 343 double
0.00161206 0.00421629 -2.06716e-05
0.00311788 0.0050241 0.00213509
0 0.00419538 0.00112517
0.0027755 0.0019912 0.00190646
0.00744961 0.00251145 0.00493828
0.00744671 0.00393245 0.00630274
0.0109787 0.00492948 0.00486069
0.00896396 0.00497503 0.0035795
0.00985023 0.00342732 0.00678838
0.00718243 0.00509083 0.00490895
0.0060233 0.00120232 0.00992024
0.00760963 0.00218704 0.00780602
0.00604264 7.79356e-05 0.00823995
0.00289182 0.00204024 0.00799655
0.00617098 0.00261756 0.00991792
0.0100092 0.00658477 0.00681875
0.00922969 0.00630978 0.00506657
0.00325073 0.00222778 0.00510461
0 0.00143586 0.00417514
0.00229057 0.00349623 0.00400762
0.00985497 0.00333349 0.00303916
0.0111684 0.00237427 0.00492327
0 0.00270918 0.00154168
0.00599817 0.00151383 -7.25761e-05
0.00722034 0.00228985 0.00210789
0.00570631 0.0036054 0.00153214
0.00193592 2.4409e-05 0.00403545
0.00603791 7.84364e-05 0.00161277
0.00377355 0.00700241 -4.63671e-05
0.00277878 0.00808956 0.00190873
0.00587932 0.00632775 0.0015717
0.0115111 0.00814332 0.00784788
0.0114703 0.00497701 0.0078735
0.0120726 0.00624879 0.00579387
0.0143746 0.00901934 0.00401398
0.0109002 0.00778572 0.00482618
0.0123175 0.0101499 0.00401271
0.0114785 0.00812982 0.00187465
0.00508796 0.00310508 0.00689508
0.00638608 0.00374853 0.0082409
0.00560801 0.00167868 0.00589812
0.00719247 0.00776504 0.00758388
0.00285223 0.00804552 0.0079533
0.00405362 0.0100503 0.0070751
0.00562372 0.00847445 0.00588581
0 0.00695361 0.00262895
0.00236252 0.00627053 0.00405747
0 0.0040177 0.00850214
0.00332331 0.00502926 0.00761922
0.0020566 0.00420087 0.0099738
0.0103197 0.0072588 0.00986219
0.00880121 0.006091 0.00830281
0.00294263 0.00798039 0.00470387
0.0043708 0.00700149 0.00641232
0.00227709 0.00610837 0.00589674
0.0143708 0.0059853 0.00812405
0 0.00718191 0.00711644
0.00227414 0.00580403 -2.89663e-05
0 0.00577432 0.00158701
0.0143718 0.00735618 0.00692713
0.00412226 0.00340374 0.00994515
0.0143681 0.00162337 0.0039967
0.0115933 0.00211134 0.00183748
0.0120886 0.00367478 0.00384751
0.00536905 0.00172293 0.00406005
0.00216105 0.0100277 0.00578703
0.00405006 5.25088e-05 0.00707677
0.00879682 0.00429302 0.00826136
0.0143708 0.00745035 0.00401681
0.0123094 0.000156951 0.00401424
0.00481372 0.00293619 -5.85006e-05
0.0038854 0.00159118 0.00994853
0.00406494 5.29142e-05 0.0027804
0.00690163 0.00528771 0.00746506
0.00454474 0.00320771 0.00310899
0 0.00849157 0.00581511
0.00700632 0.00376648 0.00369764
0.00220957 0.00273786 -2.80526e-05
0.00833376 0.00842785 0.00988841
0.00859536 0.0101049 0.0083931
0.00604755 0.0100745 0.00823875
0.00576833 0.00857506 0.00992263
0.0143727 0.00866151 0.00562913
0.00452167 0.00689457 0.00309215
0 0.00748929 0.00137438
0.00196876 0.00751502 -2.52107e-05
0 0.00287343 0.00335182
0 0.00580816 0.00831736
0 0.00429792 0.00253898
0.00364398 0.00434531 -4.47512e-05
0.00205615 0.0058457 0.00997371
0.00744188 0.00656971 0.00630486
0.00517666 0.0065781 0.00816656
0.00999035 0.00275441 0.00986691
0.0115352 0.00210558 0.00788498
0.0100216 0.000128805 0.00295759
0.00865422 0.00177606 0.00350465
0.0143684 0.00305717 0.00317492
0 0.00140616 0.00256446
0.00916254 0.00834116 0.00630333
0.0083659 0.00154416 -0.000100643
0.00867973 0.00366334 0.00149659
0.00452852 0.0100561 0.00576627
0.0123089 0.01015 0.00567469
0.00368082 0.00145415 -4.50967e-05
0.00859155 0.000111147 0.00138849
0.00903092 0.00839988 0.00350326
0.0123015 0.000156882 0.00567612
0.00892052 0.00178768 0.00625148
0.00201355 0.00258965 0.00997424
0.0102374 0.0073092 -0.00012419
0.0074276 0.00778343 0.00207557
0.00854585 0.00620147 0.00149642
0 0.00686719 0.00578184
0.0143707 0.00159432 0.00239059
0.00254529 0.00364308 0.00637533
0.0143756 0.00865651 0.00244764
0.0120956 0.00633951 0.00398126
0.00859878 0.0101056 0.00138664
0.0100184 0.000128571 0.00679851
0.0143676 0.00162257 0.00563467
0.0120724 0.00372586 0.00590607
0.00216053 2.72426e-05 0.00578785
0 0.0013659 0.00748679
0.0019609 2.48062e-05 0.00750444
0.0143703 0.00704284 0.00559531
0.00836452 0.00859587 -0.00010221
0 0.0075208 0.00859127
0.00195639 0.00751159 0.009975
0.00607839 0.00828191 0.00355013
0.0123576 0.0101491 0.00735029
0.0143754 0.00879953 0.00733496
0.00829557 0.00169332 0.00988964
0.0104351 0.00431934 0.00986058
0 0.0057735 0.00666667
0.00196183 0.0100251 0.00750351
0 0.00863025 0.00752641
0.01235 0.000158962 0.00235538
0.0143719 0.0071303 0.00245347
0.0121661 0.00649284 0.00201378
0.0122369 0.00597551 0.00983731
0.0107662 0.00151209 0.00985696
0.0123499 0.000158604 0.00735228
0.0143697 0.001553 0.00729703
0 0.00143551 0.00581971
0.00858787 0.0001106 0.00839426
0.00605121 7.83864e-05 0.0033237
0.0114114 0.00485184 0.00189489
0.0143696 0.00447903 0.00236512
0.00607238 0.0100747 0.0065878
0.00406735 0.0100502 0.00277893
0.00188096 2.39598e-05 0.00239423
0 0.00727418 0.00419576
0.0143693 0.00595117 0.00647808
0.0100293 0.0101225 0.00295552
0.0107956 0.00876801 0.00985562
0 0.00574334 0.00336387
0 0.0043297 0.00416652
0.0098743 0.00590706 0.00986822
0.0143675 0.00320532 0.00672797
0.00606691 7.84982e-05 0.00658955
0.00355412 0.010044 0.0085651
0.0107668 0.00150539 -0.000129037
0.00829738 0.00677007 0.00988906
0.0143747 0.007694 0.00839629
0.0123814 0.00770428 0.00983476
0.00994404 0.00315006 -0.00011936
0.00483128 0.00580595 -5.89233e-05
0.0108303 0.0087639 -0.000130876
0.0108127 0.0101317 0.0012541
0.00831495 0.00697165 -0.000101154
0.0100297 0.00649672 0.00290812
0.0108053 0.000140082 0.00125538
0.00413818 0.00505105 0.00994507
0.00621852 0.00591166 0.00991687
0.00621714 0.0042449 0.00991706
0.0108106 0.0101303 0.00847366
0.00355081 4.57686e-05 0.00856642
0.0143696 0.00592187 0.003187
0 0.00302218 0.00691532
0.0143698 0.00419948 0.00830766
0.0122301 0.00417339 -0.000145864
0.0143719 0.00289344 0.00137281
0 0.00244495 0.00857025
0.00350782 0.00861417 0.00995344
0.0108027 0.000139384 0.00847517
0.0122044 0.00277847 0.00983768
0.012727 0.00435392 0.00983006
0.00815144 0.0100998 0.00572836
0.00745337 0.0076769 0.00493722
0.00811228 0.0100992 0.00411144
0.0100258 0.0101223 0.006797
0.00433732 0.00697043 0.00994227
0.00598674 0.00440728 -7.24463e-05
0.00406846 5.25375e-05 0.00435328
0.00452459 5.87055e-05 0.00576852
0.0143733 0.00437722 0.000957355
0.00522594 0.00840355 0.00152226
0.014368 0.00451019 0.003987
0.00958813 0.00589402 -0.000116215
0.0123577 0.01015 0.00235382
0 0.00848692 0.00262374
0.00193618 0.0100251 0.00403462
0 0.00885053 0.00419359
0.00602818 0.00892596 -7.4029e-05
0.00604268 0.0100744 0.00161137
0.0071842 0.0048836 0.00228935
0.0103831 0.0046535 -0.000124809
0.00810504 0.000104516 0.00411401
0.00814464 0.000105074 0.0057304
0.00188085 0.0100242 0.00239325
0.0123274 0.00260369 -0.000147321
0.014368 0.00470225 0.00703022
0.0102322 0.010125 0.00486946
0.00825165 0.00346852 0.00988982
0.00352712 4.61408e-05 0.00131219
0.0143708 0.00262997 0.00837548
0.00343575 0.00483528 0.00495593
0.00838662 0.00443752 -0.000101034
0.011966 0.00595712 -0.000142801
0.00787581 0.0100964 0.00711801
0.0143671 0.00451053 0.00564854
0.00776806 0.0100953 0.00267731
0.0102248 0.000131111 0.00487116
0.00407101 0.0100504 0.00435121
0 0.00452174 0.00721958
0.00649434 0.00730113 0.00991304
0.00786903 0.000101534 0.0071192
0.00517379 0.00514045 0.00353011
0.00610853 0.0100749 0.00492916
0.00610294 7.92064e-05 0.00493178
0.00527019 0.00528405 0.00610745
0 0.005744 0.00499998
0 0.00433013 0.00583333
0.00718765 0.00583588 -8.71205e-05
0.00716371 0.00643016 0.00346292
0.00776113 0.000100245 0.00267927
0.0143686 0.00592121 0.00481719
0.00529932 0.0064759 0.00477608
0.00825347 0.00510348 0.0098897
0.0143733 0.00595194 0.00141737
0 0.00666667 0
0.0123619 0.00767269 -0.000147721
0.00478671 6.28471e-05 -5.80851e-05
0 0.01 0.00666667
0.00718692 0.0100872 0.00990408
0 0.00288419 0.00499914
0.0143759 0.00766377 0.0012049
0.0143789 0.00684215 -0.000167015
0 0.005 0.01
0.00718475 0.00297722 -8.66302e-05
0 0.005 0
0.0143741 0.000191456 0.00315744
0.0143822 0.0101646 0.00647714
0.00603019 0.00735072 -7.36453e-05
0.0143674 0.00306811 0.00481712
0.00718552 9.41421e-05 -8.70158e-05
0 0 0.00666667
0.00545399 0.00368658 0.00515686
0.00718091 9.2483e-05 0.00990522
0.0143732 0.000190935 0.0064794
0 0 0.005
0.0126359 0.0101522 0.00106747
0.0143805 0.00894931 0.00105119
0.0143728 0.000190884 0.00481787
0.0143777 0.00518017 -0.000165838
0.0017482 0.00124259 -2.21884e-05
0 0.00122008 0.00122008
0 0.00333333 0.01
0 0.00666667 0.01
0.0126353 0.00893305 -0.000151004
0.0143827 0.0101641 0.00315487
0.00605627 0.0100743 0.00332147
0.014379 0.00684167 0.00980019
0 0.00333333 0
0 0.00122008 0.00877992
0.00174675 2.21146e-05 0.00875816
0.00174662 0.00124212 0.00997764
0.0126331 0.0101508 0.00861157
0.00174755 0.00880208 0.00997752
0 0.00877992 0.00877992
0.0143789 0.00894803 0.00858463
0.00959318 0.0101169 -0.000117731
0.0143746 0.00140951 0.00105132
0.00174794 0.0100221 0.00875748
0.0126325 0.00893103 0.00983045
0.0143776 0.00517881 0.00980079
0 0 0.00333333
0.00958522 0.000125027 -0.000115641
0.0126275 0.00016435 0.00106798
0.00173592 2.22887e-05 0.00118971
0 0.00877992 0.00122008
0.00174739 0.00880267 -2.24547e-05
0.0017356 0.0100221 0.0011888
0.014373 0.00140808 0.00858543
0.0126267 0.00138309 0.00983155
0.00958031 0.000123475 0.00987316
0.0126295 0.00138484 -0.000150433
0.0126253 0.00016324 0.0086132
0.0143776 0.00351745 -0.00016552
0.00478701 0.0100583 0.00993608
0.00352871 0.0100437 0.00131104
0.00958827 0.0101157 0.00987212
0.0143763 0.00351545 0.00980062
0 0.01 0.005
0.00376657 0.00853491 -4.65927e-05
0.0143816 0.0101643 0.00481736
0 0.01 0.00333333
0 0.00166667 0
0.014377 0.000191319 0.00149626
0 0.00166667 0.01
0 0.00833333 0
0.0143832 0.00850507 -0.000167655
0.0143754 0.00019059 0.0081413
0.0143859 0.010166 0.00149597
0.0143843 0.0101648 0.00813953
0.00238973 0.0100293 0.00996882
0 0.01 0.00833333
0.011996 0.0101444 -0.000144759
0.0119875 0.000157078 -0.000143753
0.0119842 0.000155306 0.009841
0.0119922 0.0101426 0.00983974
0 0 0.00833333
0.0143825 0.00850212 0.00980112
0.00238978 3.1499e-05 -2.98573e-05
0 0 0.00166667
0.00478974 0.0100592 -5.92438e-05
0.0143772 0.0018542 0.00980187
0.0143789 0.00185618 -0.000166322
0.00238731 3.05954e-05 0.00996947
0.00238985 0.0100299 -3.04428e-05
0 0.01 0.00166667
0.0143881 0.0101665 0.00980251
0 0 0.01
0.0143901 0.010167 -0.000168965
0.0143797 0.000189418 0.00980445
0 0.01 0.01
0.014382 0.000191047 -0.000167878
0 0.01 0
0 0 0
0.00719125 0.0100881 -8.87949e-05
0.0047829 6.16199e-05 0.00993683
0 0.00833333 0.01

CELLS 343 686
1 0
1 1
1 2
1 3
1 4
1 5
1 6
1 7
1 8
1 9
1 10
1 11
1 12
1 13
1 14
1 15
1 16
1 17
1 18
1 19
1 20
1 21
1 22
1 23
1 24
1 25
1 26
1 27
1 28
1 29
1 30
1 31
1 32
1 33
1 34
1 35
1 36
1 37
1 38
1 39
1 40
1 41
1 42
1 43
1 44
1 45
1 46
1 47
1 48
1 49
1 50
1 51
1 52
1 53
1 54
1 55
1 56
1 57
1 58
1 59
1 60
1 61
1 62
1 63
1 64
1 65
1 66
1 67
1 68
1 69
1 70
1 71
1 72
1 73
1 74
1 75
1 76
1 77
1 78
1 79
1 80
1 81
1 82
1 83
1 84
1 85
1 86
1 87
1 88
1 89
1 90
1 91
1 92
1 93
1 94
1 95
1 96
1 97
1 98
1 99
1 100
1 101
1 102
1 103
1 104
1 105
1 106
1 107
1 108
1 109
1 110
1 111
1 112
1 113
1 114
1 115
1 116
1 117
1 118
1 119
1 120
1 121
1 122
1 123
1 124
1 125
1 126
1 127
1 128
1 129
1 130
1 131
1 132
1 133
1 134
1 135
1 136
1 137
1 138
1 139
1 140
1 141
1 142
1 143
1 144
1 145
1 146
1 147
1 148
1 149
1 150
1 151
1 152
1 153
1 154
1 155
1 156
1 157
1 158
1 159
1 160
1 161
1 162
1 163
1 164
1 165
1 166
1 167
1 168
1 169
1 170
1 171
1 172
1 173
1 174
1 175
1 176
1 177
1 178
1 179
1 180
1 181
1 182
1 183
1 184
1 185
1 186
1 187
1 188
1 189
1 190
1 191
1 192
1 193
1 194
1 195
1 196
1 197
1 198
1 199
1 200
1 201
1 202
1 203
1 204
1 205
1 206
1 207
1 208
1 209
1 210
1 211
1 212
1 213
1 214
1 215
1 216
1 217
1 218
1 219
1 220
1 221
1 222
1 223
1 224
1 225
1 226
1 227
1 228
1 229
1 230
1 231
1 232
1 233
1 234
1 235
1 236
1 237
1 238
1 239
1 240
1 241
1 242
1 243
1 244
1 245
1 246
1 247
1 248
1 249
1 250
1 251
1 252
1 253
1 254
1 255
1 256
1 257
1 258
1 259
1 260
1 261
1 262
1 263
1 264
1 265
1 266
1 267
1 268
1 269
1 270
1 271
1 272
1 273
1 274
1 275
1 276
1 277
1 278
1 279
1 280
1 281
1 282
1 283
1 284
1 285
1 286
1 287
1 288
1 289
1 290
1 291
1 292
1 293
1 294
1 295
1 296
1 297
1 298
1 299
1 300
1 301
1 302
1 303
1 304
1 305
1 306
1 307
1 308
1 309
1 310
1 311
1 312
1 313
1 314
1 315
1 316
1 317
1 318
1 319
1 320
1 321
1 322
1 323
1 324
1 325
1 326
1 327
1 328
1 329
1 330
1 331
1 332
1 333
1 334
1 335
1 336
1 337
1 338
1 339
1 340
1 341
1 342

CELL_TYPES 343
1
1
1
1
1
1
1
1
1
1
1
1
1
1
1
1
1
1
1
1
1
1
1
1
1
1
1
1
1
1
1
1
1
1
1
1
1
1
1
1
1
1
1
1
1
1
1
1
1
1
1
1
1
1
1
1
1
1
1
1
1
1
1
1
1
1
1
1
1
1
1
1
1
1
1
1
1
1
1
1
1
1
1
1
1
1
1
1
1
1
1
1
1
1
1
1
1
1
1
1
1
1
1
1
1
1
1
1
1
1
1
1
1
1
1
1
1
1
1
1
1
1
1
1
1
1
1
1
1
1
1
1
1
1
1
1
1
1
1
1
1
1
1
1
1
1
1
1
1
1
1
1
1
1
1
1
1
1
1
1
1
1
1
1
1
1
1
1
1
1
1
1
1
1
1
1
1
1
1
1
1
1
1
1
1
1
1
1
1
1
1
1
1
1
1
1
1
1
1
1
1
1
1
1
1
1
1
1
1
1
1
1
1
1
1
1
1
1
1
1
1
1
1
1
1
1
1
1
1
1
1
1
1
1
1
1
1
1
1
1
1
1
1
1
1
1
1
1
1
1
1
1
1
1
1
1
1
1
1
1
1
1
1
1
1
1
1
1
1
1
1
1
1
1
1
1
1
1
1
1
1
1
1
1
1
1
1
1
1
1
1
1
1
1
1
1
1
1
1
1
1
1
1
1
1
1
1
1
1
1
1
1
1
1
1
1
1
1
1
1
1
1
1
1
1
1
1
1
1
1
1
1
1
1
1
1
1
1
1
1
1
1
1

POINT_DATA 343
FIELD FieldData 8

NodeID_(#) 1 343 int
0
1
2
3
4
5
6
7
8
9
10
11
12
13
14
15
16
17
18
19
20
21
22
23
24
25
26
27
28
29
30
31
32
33
34
35
36
37
38
39
40
41
42
43
44
45
46
47
48
49
50
51
52
53
54
55
56
57
58
59
60
61
62
63
64
65
66
67
68
69
70
71
72
73
74
75
76
77
78
79
80
81
82
83
84
85
86
87
88
89
90
91
92
93
94
95
96
97
98
99
100
101
102
103
104
105
106
107
108
109
110
111
112
113
114
115
116
117
118
119
120
121
122
123
124
125
126
127
128
129
130
131
132
133
134
135
136
137
138
139
140
141
142
143
144
145
146
147
148
149
150
151
152
153
154
155
156
157
158
159
160
161
162
163
164
165
166
167
168
169
170
171
172
173
174
175
176
177
178
179
180
181
182
183
184
185
186
187
188
189
190
191
192
193
194
195
196
197
198
199
200
201
202
203
204
205
206
207
208
209
210
211
212
213
214
215
216
217
218
219
220
221
222
223
224
225
226
227
228
229
230
231
232
233
234
235
236
237
238
239
240
241
242
243
244
245
246
247
248
249
250
251
252
253
254
255
256
257
258
259
260
261
262
263
264
265
266
267
268
269
270
271
272
273
274
275
276
277
278
279
280
281
282
283
284
285
286
287
288
289
290
291
292
293
294
295
296
297
298
299
300
301
302
303
304
305
306
307
308
309
310
311
312
313
314
315
316
317
318
319
320
321
322
323
324
325
326
327
328
329
330
331
332
333
334
335
336
337
338
339
340
341
342

Component_(#) 1 343 int
0
0
0
0
0
0
0
0
0
0
0
0
0
0
0
0
0
0
0
0
0
0
0
0
0
0
0
0
0
0
0
0
0
0
0
0
0
0
0
0
0
0
0
0
0
0
0
0
0
0
0
0
0
0
0
0
0
0
0
0
0
0
0
0
0
0
0
0
0
0
0
0
0
0
0
0
0
0
0
0
0
0
0
0
0
0
0
0
0
0
0
0
0
0
0
0
0
0
0
0
0
0
0
0
0
0
0
0
0
0
0
0
0
0
0
0
0
0
0
0
0
0
0
0
0
0
0
0
0
0
0
0
0
0
0
0
0
0
0
0
0
0
0
0
0
0
0
0
0
0
0
0
0
0
0
0
0
0
0
0
0
0
0
0
0
0
0
0
0
0
0
0
0
0
0
0
0
0
0
0
0
0
0
0
0
0
0
0
0
0
0
0
0
0
0
0
0
0
0
0
0
0
0
0
0
0
0
0
0
0
0
0
0
0
0
0
0
0
0
0
0
0
0
0
0
0
0
0
0
0
0
0
0
0
0
0
0
0
0
0
0
0
0
0
0
0
0
0
0
0
0
0
0
0
0
0
0
0
0
0
0
0
0
0
0
0
0
0
0
0
0
0
0
0
0
0
0
0
0
0
0
0
0
0
0
0
0
0
0
0
0
0
0
0
0
0
0
0
0
0
0
0
0
0
0
0
0
0
0
0
0
0
0
0
0
0
0
0
0
0
0
0
0
0
0
0
0
0
0
0
0
0
0
0
0
0
0
0
0
0
0
0
0

NodalMass_(kg) 1 343 double
3.15563e-06
1.41304e-05
2.20912e-06
1.71484e-05
8.42e-06
9.09306e-06
1.01179e-05
7.52198e-06
6.81096e-06
5.58223e-06
3.10888e-06
1.07575e-05
4.87011e-06
1.64955e-05
3.0246e-06
8.05984e-06
6.703e-06
1.0877e-05
4.18978e-06
8.16106e-06
6.14143e-06
1.17902e-05
2.23114e-06
4.25176e-06
1.09915e-05
7.41467e-06
4.21871e-06
3.92484e-06
3.08766e-06
1.31268e-05
7.72627e-06
1.65404e-05
1.19037e-05
7.97564e-06
3.81683e-06
1.11001e-05
3.81317e-06
1.39137e-05
6.37414e-06
8.00975e-06
7.6712e-06
1.21135e-05
1.6399e-05
2.78633e-06
8.93599e-06
2.58087e-06
7.57362e-06
4.23241e-06
1.31286e-05
3.80168e-06
2.7746e-06
7.16776e-06
1.21307e-05
5.11765e-06
8.19728e-06
4.58094e-06
2.79503e-06
3.26126e-06
4.12443e-06
2.11915e-06
3.35177e-06
3.61669e-06
1.56838e-05
7.33679e-06
8.24695e-06
5.00369e-06
2.82625e-06
7.20276e-06
3.26815e-06
4.18751e-06
2.02785e-06
2.42152e-06
3.11835e-06
5.97459e-06
5.87101e-06
4.09374e-06
5.45463e-06
2.28825e-06
4.49759e-06
4.38192e-06
4.50892e-06
4.39234e-06
4.27273e-06
5.32031e-06
1.53201e-06
2.38869e-06
2.02885e-06
4.38798e-06
3.17972e-06
3.14298e-06
4.61567e-06
5.87645e-06
8.18088e-06
2.48341e-06
1.53815e-05
3.49683e-06
7.35227e-06
2.01314e-06
2.0408e-06
7.98183e-06
4.41293e-06
7.1389e-06
1.20123e-06
5.03343e-06
1.61257e-06
4.12601e-06
8.73748e-06
4.37849e-06
7.97173e-06
2.13557e-06
3.38137e-06
9.48623e-06
7.40262e-06
1.80226e-06
2.10222e-06
7.98889e-06
1.87983e-06
7.44814e-06
4.19782e-06
2.37156e-06
4.31705e-06
6.06441e-06
4.30905e-06
2.16843e-06
1.8986e-06
1.81294e-06
3.89762e-06
2.44299e-06
1.65628e-06
8.01374e-06
1.64513e-06
2.3931e-06
3.01363e-06
2.99431e-06
1.36541e-06
1.87293e-06
2.09622e-06
1.94762e-06
1.87618e-06
6.37913e-06
4.58628e-06
2.02767e-06
1.61999e-06
2.41284e-06
3.8865e-06
4.44973e-06
2.29839e-06
1.17349e-05
3.11811e-06
1.354e-06
3.45063e-06
1.81846e-06
2.9382e-06
1.37381e-06
2.41464e-06
2.10451e-06
2.63927e-06
2.14166e-06
1.7943e-06
3.19976e-06
1.36989e-06
2.43489e-06
2.08158e-06
1.3601e-06
2.17203e-06
1.89924e-06
3.16996e-06
2.6119e-06
2.37677e-06
1.60225e-06
1.90684e-06
5.49206e-06
1.87878e-06
3.14313e-06
2.97301e-06
1.18454e-06
1.89263e-06
2.04166e-06
2.73572e-06
2.42405e-06
3.23083e-06
3.19752e-06
3.2142e-06
1.94492e-06
1.61196e-06
1.86876e-06
3.22435e-06
2.1114e-06
2.96917e-06
6.15288e-06
2.3097e-06
2.39729e-06
2.38029e-06
2.64508e-06
1.66557e-06
1.82377e-06
2.06583e-06
5.73271e-06
2.08467e-06
2.18324e-06
2.43522e-06
3.1188e-06
3.17316e-06
2.05447e-06
1.9592e-06
3.05718e-06
6.44327e-06
2.08796e-06
2.72615e-06
2.15709e-06
1.86812e-06
2.0028e-06
2.10999e-06
2.88994e-06
2.3222e-06
2.3979e-06
1.97629e-06
6.4127e-06
2.16225e-06
3.29198e-06
2.10223e-06
2.66566e-06
1.94415e-06
2.91865e-06
2.58116e-06
2.11703e-06
2.09534e-06
1.91719e-06
7.06046e-06
2.25203e-06
2.06378e-06
6.28159e-06
2.12147e-06
2.90924e-06
2.12921e-06
6.4487e-06
1.41701e-06
2.0682e-06
6.58062e-06
2.52584e-06
2.39732e-06
7.42191e-07
2.22368e-06
7.06751e-07
7.00657e-07
8.93749e-07
2.53536e-06
2.26535e-06
1.33607e-06
7.84725e-07
2.32303e-06
6.06694e-07
6.68276e-07
6.84307e-07
2.51242e-06
2.31629e-06
7.8367e-07
6.80839e-07
6.22692e-06
6.7471e-07
6.65305e-07
7.01158e-07
1.8232e-06
1.90695e-06
6.86722e-07
7.04792e-07
1.86445e-06
2.28572e-06
6.8045e-07
7.16005e-07
1.82373e-06
6.01079e-07
2.02791e-06
7.4579e-07
5.74423e-07
1.80052e-06
1.454e-06
2.2702e-06
1.80636e-06
2.15356e-06
1.79089e-06
1.79456e-06
6.8231e-07
2.24737e-06
1.45239e-06
1.79556e-06
6.97875e-07
6.24265e-07
6.62717e-07
1.44627e-06
1.40138e-06
2.15258e-06
1.82851e-06
1.3994e-06
1.43932e-06
2.19226e-06
6.97732e-07
1.77726e-06
1.79162e-06
6.54258e-07
7.3397e-07
2.34895e-06
7.10392e-07
6.56982e-07
6.26314e-07
2.18926e-06
6.12493e-07
6.03901e-07
5.92831e-07
5.12031e-07
5.11667e-07
4.9467e-07
4.97016e-07
4.96269e-07
5.33079e-07
4.94191e-07
4.97855e-07
4.86862e-07
4.90626e-07
4.94649e-07
4.94954e-07
4.91922e-07
4.89615e-07
4.96354e-07
4.95189e-07
4.82188e-07
1.10854e-06
5.3299e-07
5.44763e-07
5.36655e-07
5.15417e-07
5.01772e-07
5.53774e-07
5.53774e-07
5.53774e-07
5.53774e-07
5.53774e-07
5.53774e-07
5.50785e-07
5.50785e-07
7.45291e-07
7.11668e-07
4.9897e-07

NodalForce_(N) 3 343 double
2.0871e-07 -4.18101e-09 8.82339e-09
1.31207e-06 -1.56269e-07 5.18716e-07
0.00021002 1.06668e-05 0.000592809
1.05469e-06 -1.35414e-07 4.27746e-07
-5.34558e-07 -5.75416e-07 2.52128e-06
-1.55598e-06 -7.06367e-07 3.02992e-06
-5.47794e-07 -1.422e-06 7.01181e-06
7.93455e-07 -7.36891e-07 3.36806e-06
-1.90957e-06 -8.44134e-07 4.03142e-06
-1.09342e-07 -3.95755e-07 1.5886e-06
-1.3452e-06 -1.71226e-07 8.58621e-07
-3.65402e-06 -8.89362e-07 4.16376e-06
-1.55905e-06 -2.36469e-07 1.28435e-06
-1.79992e-06 -2.24354e-07 6.03969e-07
-1.28433e-06 -1.92291e-07 8.79432e-07
-1.90638e-06 -1.05594e-06 4.98146e-06
-2.17984e-07 -7.47281e-07 3.32834e-06
-2.90407e-07 -1.41496e-07 5.79459e-07
0.000825891 0.000608734 0.000400811
1.19885e-07 -2.75786e-08 1.62871e-07
8.15529e-07 -6.83212e-07 3.28125e-06
-1.29236e-06 -1.65995e-06 8.39861e-06
0.00177686 -0.000328164 0.000367397
1.2279e-06 -1.43159e-07 8.34482e-07
1.9472e-06 -6.83989e-07 3.34043e-06
1.47889e-06 -3.32127e-07 1.48101e-06
-1.96579e-08 2.25764e-08 8.18524e-08
6.08131e-07 -5.69066e-08 8.30982e-07
7.90704e-07 -3.10386e-08 2.24683e-07
1.40123e-06 -8.37201e-09 4.34811e-07
1.86519e-06 -2.71885e-07 1.63904e-06
-5.94124e-06 -2.81703e-06 1.36617e-05
-5.01488e-06 -1.91117e-06 9.66263e-06
-1.2517e-06 -1.34891e-06 6.75072e-06
2.33017e-07 -7.62529e-07 4.22034e-06
6.19863e-08 -1.62414e-06 7.6436e-06
4.70143e-07 -5.41636e-07 3.28559e-06
4.85684e-06 -1.98065e-06 1.02483e-05
-8.62523e-07 -2.50009e-07 9.67786e-07
-2.32994e-06 -5.00806e-07 2.3416e-06
-8.71063e-07 -3.05263e-07 1.23948e-06
-2.48097e-06 -1.00235e-06 4.32347e-06
-1.12464e-06 -2.99877e-07 6.89021e-07
-1.09038e-07 -4.28033e-08 2.67083e-07
-1.21856e-07 -4.1946e-07 1.61427e-06
0.000998043 -6.80397e-05 -0.000347437
2.21051e-07 -8.0389e-08 1.9346e-07
0.000500665 0.000574303 -0.000418326
-1.1297e-06 -1.83363e-07 7.60443e-07
-3.78011e-07 -2.90698e-08 5.64657e-08
-1.53454e-06 -4.12418e-07 1.97589e-06
-2.59237e-06 -7.94059e-07 3.79427e-06
3.28058e-07 -5.99987e-08 5.01386e-07
-2.17883e-07 -1.29191e-07 5.28572e-07
-1.78464e-07 -6.03072e-08 2.23587e-07
-2.24286e-06 -1.02725e-06 5.36222e-06
0.000753064 -0.000239897 1.34193e-05
3.85257e-07 -1.70272e-08 5.13894e-08
0.00189548 -0.000591146 0.000680171
-6.81246e-07 -4.58687e-07 2.4524e-06
-1.01315e-06 -1.09014e-07 4.36981e-07
-2.67917e-07 -6.9936e-07 3.91842e-06
3.78804e-06 -2.12667e-06 1.12346e-05
2.05927e-07 -1.15663e-06 5.92839e-06
-2.78481e-08 -2.77264e-07 1.15426e-06
3.34004e-08 7.95895e-11 1.18443e-07
-3.83579e-07 -4.65105e-08 2.43148e-07
-2.8129e-06 -7.87028e-07 3.77217e-06
1.17487e-07 -6.60591e-07 3.59223e-06
-2.67415e-07 -5.66115e-07 3.47086e-06
5.34546e-07 -4.1475e-08 2.52474e-07
-7.3619e-07 -6.66729e-08 2.86539e-07
9.34237e-08 -1.17557e-08 2.45634e-07
-1.36852e-06 -3.98981e-07 1.92951e-06
3.23138e-07 -1.58733e-07 5.92888e-07
0.00125895 -0.000316245 -0.000481791
3.47999e-07 -3.34777e-07 1.46647e-06
2.08201e-07 -9.3343e-09 3.08313e-08
-2.0803e-06 -5.15351e-07 2.2711e-06
-1.26681e-06 -4.0601e-07 2.33747e-06
-8.43658e-07 -2.0141e-07 1.26794e-06
-1.42668e-06 -2.94451e-07 1.14231e-06
-6.07476e-07 -8.9967e-07 4.85081e-06
5.38078e-07 -1.11229e-07 5.5918e-07
0.00116288 0.000362334 0.000181963
2.53189e-07 1.04131e-08 1.3726e-08
0.00121168 -9.29488e-05 -0.000305502
0.00200696 -0.000205358 -0.000494328
0.00107519 0.000772736 -0.00057606
6.88406e-07 -4.6083e-08 2.12949e-07
-4.88339e-07 -3.13793e-08 7.3992e-08
-7.03484e-07 -4.5468e-07 1.99101e-06
-1.63845e-06 -3.27745e-07 1.61929e-06
-1.53982e-06 -3.41545e-07 1.64185e-06
-7.32064e-06 -2.47145e-06 1.24278e-05
2.88036e-07 -2.92088e-07 1.90694e-06
4.16422e-07 -6.19643e-07 3.03091e-06
1.04394e-07 -4.0047e-07 2.1601e-06
0.00178205 0.00078166 -8.34673e-05
-1.00049e-06 -9.19202e-07 4.10593e-06
1.66754e-06 -2.91083e-07 1.69826e-06
1.97522e-06 -6.34669e-07 3.10008e-06
1.85745e-08 -3.42259e-08 1.49991e-07
-3.95499e-07 -7.66206e-07 4.45782e-06
3.00244e-07 -2.04151e-08 1.18909e-07
9.12735e-07 -2.27087e-07 1.73568e-06
1.52997e-06 -8.80905e-07 4.10627e-06
-1.15777e-06 -6.19799e-07 3.7422e-06
-1.87997e-06 -7.73338e-07 3.78128e-06
-2.19373e-07 -7.1485e-09 3.16226e-08
1.7811e-06 -3.7023e-07 2.01453e-06
2.72308e-06 -6.34282e-07 3.11867e-06
2.44497e-06 -6.33557e-07 3.17972e-06
0.000762958 0.000383195 -0.000391467
2.44963e-07 -3.89252e-07 2.21907e-06
-3.63568e-07 -7.07018e-08 2.61724e-07
4.5331e-07 -3.67143e-07 2.04683e-06
4.78782e-07 -1.23669e-06 6.07975e-06
1.72965e-06 -3.03395e-07 1.9162e-06
-8.28505e-07 -2.50369e-07 1.41989e-06
-1.18061e-06 -8.64537e-07 4.81044e-06
-1.34916e-06 -9.93878e-07 5.12083e-06
-1.776e-07 -1.5384e-09 8.80764e-08
0.00150923 0.000239704 0.000359608
-1.25788e-07 -1.39354e-08 1.56609e-08
-2.96623e-07 -3.77874e-07 2.0463e-06
2.0448e-06 -2.64088e-07 1.64285e-06
0.00167951 0.000464392 -0.000746328
-1.55929e-07 -2.80868e-08 3.74351e-08
1.15734e-06 -3.64587e-07 1.54965e-06
-4.6636e-07 -2.60795e-07 1.52212e-06
-8.3558e-07 -5.1175e-07 2.80217e-06
-1.7426e-06 -2.7963e-07 1.45935e-06
-1.83804e-06 -4.39791e-07 2.13952e-06
0.00103425 -0.000185141 0.000385704
-4.98185e-08 7.92699e-09 2.77536e-08
0.00148112 -0.000384495 0.000351208
2.59014e-07 -2.47436e-07 1.56757e-06
4.06392e-07 -3.60876e-07 2.02536e-06
1.91226e-06 -9.92133e-07 5.13934e-06
-2.96217e-06 -8.56583e-07 4.23062e-06
-1.36483e-06 -2.91599e-07 1.51675e-06
-7.55953e-07 -2.46603e-07 1.43744e-06
-1.14864e-06 -5.04466e-07 2.75251e-06
0.00108591 0.000548138 -0.000715433
-2.09189e-06 -3.90804e-07 2.18908e-06
7.25646e-08 -6.29366e-08 4.35917e-07
3.37304e-06 -1.66853e-06 8.32673e-06
5.46977e-07 -6.39713e-07 3.30777e-06
-7.65725e-08 -5.9657e-08 3.17108e-07
5.00495e-07 -5.16668e-08 3.15985e-07
4.82378e-08 1.63618e-08 1.03673e-08
0.00237823 0.000767348 -6.37778e-05
-4.01213e-07 -3.01387e-07 1.56769e-06
6.27522e-07 -2.43469e-07 1.40965e-06
-1.13789e-06 -3.47344e-07 1.62756e-06
0.00152655 0.000167191 -0.000675309
0.000897171 0.000820537 0.00173955
-1.01802e-06 -2.49027e-07 1.18904e-06
-1.20988e-06 -6.76405e-07 3.6487e-06
-2.779e-07 -5.82593e-08 2.87285e-07
-2.74916e-07 -2.40706e-08 2.33808e-07
8.69825e-07 -2.21785e-07 1.29085e-06
-6.55971e-07 -1.37217e-07 6.89667e-07
-1.07245e-06 -4.8349e-07 2.55775e-06
-1.17921e-06 -3.72642e-07 1.79965e-06
1.3983e-06 -3.17023e-07 1.73057e-06
8.0077e-07 -5.42152e-08 3.49932e-07
1.34578e-06 -2.66464e-07 1.59698e-06
7.07889e-07 -1.66583e-07 1.09798e-06
9.21631e-07 -1.46624e-07 7.89606e-07
1.11244e-06 -6.57244e-07 3.12036e-06
4.86149e-07 -1.70997e-07 1.18486e-06
-8.73119e-07 -1.31561e-07 4.48253e-07
-1.19162e-06 -1.94857e-07 9.26967e-07
-4.89252e-07 -8.37207e-08 3.67779e-07
-7.05838e-07 -2.50479e-07 1.46265e-06
-3.92475e-07 -5.04274e-08 1.55009e-07
2.99042e-07 -5.75887e-07 2.95164e-06
0.00180587 -0.000152268 0.000213372
-1.76933e-06 -7.11543e-07 3.75729e-06
1.57916e-06 -4.75441e-07 2.50965e-06
8.36947e-07 -6.20532e-07 3.33439e-06
0.00141952 -0.000181263 -0.000334727
-3.30682e-07 -5.41489e-08 1.81914e-07
-1.03379e-06 -2.44884e-07 1.37014e-06
-2.28393e-06 -5.83752e-07 2.93185e-06
-1.4613e-06 -4.09603e-07 2.05761e-06
-6.4863e-08 -2.36766e-07 1.2069e-06
1.27486e-07 -4.71724e-07 1.95429e-06
3.29174e-07 -1.71323e-07 8.82702e-07
-4.02412e-07 -2.71861e-07 1.50618e-06
-6.33508e-07 -5.79256e-08 3.87338e-07
9.08112e-07 -1.14013e-07 5.7735e-07
-4.6431e-08 -2.47093e-08 1.33015e-07
-1.72741e-07 -3.3405e-08 1.82789e-07
6.94117e-07 -4.05913e-07 2.14456e-06
1.43022e-06 -1.69205e-07 1.0254e-06
-3.57409e-08 -4.34498e-07 2.28078e-06
1.07623e-06 -2.13941e-07 1.13958e-06
7.73264e-07 -3.26504e-07 2.08273e-06
0.00145212 -0.000247846 -4.96208e-05
9.60217e-08 -1.12348e-08 6.50822e-08
0.00132306 -0.000624546 -2.69091e-05
8.16502e-07 -6.74782e-08 4.6886e-07
9.47402e-07 -1.22257e-07 7.20303e-07
1.30915e-06 -3.90612e-07 1.90459e-06
1.00037e-06 -2.41167e-07 1.24085e-06
-7.18617e-08 -1.65821e-07 9.64195e-07
-4.18745e-07 -1.45329e-07 8.1352e-07
1.20095e-07 -7.18387e-09 1.75976e-08
9.26013e-07 -2.8373e-07 1.57186e-06
-8.11417e-07 -4.58185e-07 2.42464e-06
1.32055e-07 -3.17236e-07 1.80766e-06
-1.25314e-06 -2.47417e-07 1.12863e-06
2.32236e-07 1.80701e-08 1.38086e-07
-1.15628e-06 -4.32373e-07 2.28677e-06
-7.92816e-09 -9.76615e-08 4.13443e-07
9.20534e-07 -1.75971e-07 8.9824e-07
1.73489e-06 -4.48024e-07 2.54194e-06
-2.99196e-07 -1.6274e-07 8.63141e-07
-5.869e-07 -5.68297e-07 2.99772e-06
5.3487e-07 -1.2412e-07 6.93996e-07
-3.9053e-07 -2.80957e-07 1.7359e-06
2.11346e-07 -4.1226e-08 2.20514e-07
0.0016641 0.000311456 0.000688678
-8.16837e-07 -1.42733e-07 6.92352e-07
-6.06946e-07 -1.31826e-07 7.31759e-07
5.07012e-07 -2.37117e-07 9.35271e-07
1.61797e-07 -9.93362e-08 4.81887e-07
-1.66395e-07 -7.5214e-08 3.82126e-07
-4.10665e-07 -2.3553e-07 9.62983e-07
0.00200007 -0.00140298 6.42589e-05
0.00198445 0.000728647 -0.00113686
8.88881e-07 -1.03669e-07 6.77275e-07
8.57363e-07 -4.42939e-07 1.81608e-06
1.39776e-07 -6.78372e-08 4.72203e-07
-1.84614e-07 -4.47387e-07 2.30146e-06
1.69134e-07 -2.31976e-07 9.21866e-07
-1.28699e-06 -2.65368e-07 1.25796e-06
7.57333e-07 -4.80149e-07 2.52239e-06
0.000775509 0.000746375 -2.34145e-05
1.24105e-06 -3.28884e-07 1.83714e-06
1.59825e-07 -1.3884e-08 9.67065e-08
0.000883486 6.12734e-06 -0.00098901
-3.47154e-07 -6.5044e-08 3.57712e-07
0.00202843 -0.00116813 0.000142007
8.37629e-07 -4.19663e-07 2.39761e-06
6.8148e-07 -2.53165e-07 1.40227e-06
0.000802062 -0.00106132 0.00010419
8.39829e-07 -1.18496e-07 6.96842e-07
0.000722775 0.00118011 -8.39809e-05
-7.61781e-10 -1.14421e-07 7.11056e-07
-1.55559e-07 -1.2613e-07 7.93487e-07
9.80778e-07 -8.64104e-08 5.85426e-07
-3.40607e-07 -4.71822e-07 2.56225e-06
2.5178e-07 -2.93934e-08 2.29614e-07
0.000654145 -0.000202184 0.000795062
-2.39465e-07 -2.55341e-07 9.30744e-07
-3.50429e-07 -3.77985e-08 2.63164e-07
-2.66658e-07 -1.21781e-07 7.45781e-07
0.000422155 -0.000432432 0.00102223
8.34119e-07 -2.33472e-07 1.60803e-06
7.77607e-07 -3.41232e-07 2.04019e-06
-1.37183e-07 -1.20633e-07 7.5297e-07
3.34775e-07 -1.30718e-07 7.30208e-07
1.1746e-07 -1.303e-08 1.47041e-08
0.00103368 0.000522147 7.74988e-05
0.000696097 -0.000999932 0.000159113
0.000750262 -0.000984594 7.40799e-05
1.04268e-06 -2.47795e-07 1.57935e-06
1.0559e-07 -9.90919e-08 6.65041e-07
3.79101e-07 -8.66736e-08 4.0522e-07
-5.04232e-07 -1.69277e-07 8.84527e-07
0.000732964 0.000513708 0.000112162
0.000454748 0.000402721 -0.000523362
-1.10332e-07 -1.09576e-08 3.14732e-08
-2.02272e-07 -1.1751e-08 2.82931e-08
-7.96257e-07 -3.05853e-07 1.78494e-06
-1.59939e-07 -2.80422e-08 4.25998e-08
0.000643822 -0.000227853 -0.000286942
-8.92238e-07 -3.97885e-07 2.13039e-06
3.94398e-07 -4.71703e-08 3.82332e-07
6.06764e-07 -3.98742e-07 2.30535e-06
-6.53749e-08 6.02235e-10 4.79566e-08
-1.08906e-06 -3.56029e-07 1.76588e-06
-4.93965e-07 -1.61739e-07 8.23103e-07