# vtk DataFile Version 4.2
vtk output
ASCII
DATASET UNSTRUCTURED_GRID

POINTS 343 double
0.00161188 0.00421632 -2.06828e-05
0.00311754 0.0050242 0.00213505
0 0.00419538 0.00112517
0.00277543 0.00199132 0.00190642
0.00744997 0.00251257 0.00493789
0.00744686 0.00393336 0.00630229
0.0109782 0.00493152 0.00485965
0.00896329 0.00497636 0.0035789
0.00985072 0.00342913 0.00678745
0.00718204 0.0050916 0.00490861
0.00602442 0.00120328 0.00991972
0.00761054 0.00218829 0.00780542
0.00604386 7.89951e-05 0.00823956
0.00289193 0.00204033 0.0079965
0.00617179 0.00261833 0.00991736
0.0100085 0.00658633 0.0068178
0.00922884 0.0063111 0.00506589
0.00325074 0.00222792 0.00510458
0 0.00143586 0.00417514
0.00229046 0.00349626 0.00400762
0.00985475 0.00333536 0.00303836
0.0111689 0.00237675 0.00492215
0 0.00270918 0.00154168
0.00599808 0.00151481 -7.29753e-05
0.00722035 0.00229103 0.00210737
0.00570587 0.00360595 0.00153179
0.00193607 2.44661e-05 0.00403543
0.00603841 7.9498e-05 0.00161237
0.00377272 0.00700257 -4.65121e-05
0.00277827 0.00808962 0.00190869
0.00587836 0.00632815 0.00157135
0.0115101 0.00814545 0.00784649
0.0114705 0.00497923 0.00787214
0.0120718 0.00625117 0.00579252
0.0143722 0.00902264 0.00401222
0.0108987 0.00778763 0.00482518
0.0123148 0.0101525 0.00401142
0.0114762 0.00813195 0.00187352
0.00508811 0.0031055 0.00689491
0.00638644 0.00374917 0.00824041
0.00560851 0.00167942 0.00589794
0.00719176 0.00776585 0.00758335
0.00285192 0.00804561 0.00795328
0.00405276 0.0100506 0.00707503
0.00562278 0.00847495 0.00588564
0 0.00695361 0.00262895
0.00236225 0.0062706 0.00405745
0 0.0040177 0.00850214
0.00332313 0.00502936 0.00761917
0.00205659 0.00420092 0.00997378
0.0103194 0.00726052 0.00986088
0.00880103 0.0060922 0.00830193
0.00294222 0.00798044 0.00470385
0.00437035 0.00700168 0.00641225
0.00227689 0.00610842 0.00589673
0.0143706 0.00598865 0.008122
0 0.00718191 0.00711644
0.00227376 0.00580409 -2.89967e-05
0 0.00577432 0.00158701
0.0143707 0.00735947 0.00692516
0.00412261 0.003404 0.00994487
0.0143688 0.00162729 0.00399488
0.0115933 0.00211406 0.0018363
0.0120884 0.00367743 0.00384622
0.00536939 0.00172362 0.00405989
0.00216062 0.0100278 0.00578703
0.00405076 5.30116e-05 0.00707668
0.00879723 0.00429432 0.00826048
0.014369 0.00745362 0.00401504
0.0123107 0.000160219 0.00401286
0.00481325 0.00293661 -5.87519e-05
0.00388601 0.00159155 0.00994829
0.00406546 5.34507e-05 0.00278029
0.00690157 0.00528838 0.00746457
0.0045446 0.00320801 0.00310889
0 0.00849157 0.00581511
0.00700613 0.00376731 0.0036973
0.00220938 0.0027379 -2.80705e-05
0.0083332 0.00842905 0.00988747
0.00859401 0.0101062 0.00839221
0.00604656 0.0100752 0.00823832
0.00576791 0.00857569 0.00992214
0.0143709 0.00866479 0.00562727
0.00452105 0.00689478 0.00309205
0 0.00748929 0.00137438
0.00196836 0.00751502 -2.52198e-05
0 0.00287343 0.00335182
0 0.00580816 0.00831736
0 0.00429792 0.00253898
0.00364341 0.00434549 -4.48882e-05
0.0020561 0.00584574 0.00997368
0.00744127 0.00657052 0.00630441
0.00517643 0.00657838 0.00816627
0.00999166 0.0027564 0.00986568
0.0115365 0.00210823 0.00788363
0.0100225 0.000131188 0.0029567
0.00865462 0.00177773 0.00350403
0.0143683 0.00306087 0.00317312
0 0.00140616 0.00256446
0.00916131 0.00834254 0.00630261
0.00836583 0.00154585 -0.000101397
0.00867921 0.00366478 0.00149585
0.00452751 0.0100565 0.00576616
0.0123065 0.0101526 0.00567333
0.0036807 0.00145454 -4.52519e-05
0.00859219 0.000113031 0.00138771
0.00902914 0.00840123 0.00350263
0.0123031 0.000160124 0.0056747
0.00892143 0.00178941 0.00625079
0.00201362 0.00258966 0.00997421
0.0102352 0.00731091 -0.000125234
0.00742602 0.0077843 0.00207509
0.00854447 0.00620256 0.00149572
0 0.00686719 0.00578184
0.014371 0.00159827 0.0023888
0.00254521 0.00364314 0.0063753
0.014373 0.00865981 0.00244588
0.0120943 0.00634191 0.00398001
0.00859618 0.010107 0.00138596
0.0100201 0.000130947 0.00679757
0.0143687 0.00162647 0.00563279
0.0120727 0.00372848 0.00590471
0.00216071 2.73246e-05 0.00578784
0 0.0013659 0.00748679
0.00196107 2.48926e-05 0.00750446
0.0143691 0.00704612 0.00559346
0.00836217 0.00859706 -0.000102948
0 0.0075208 0.00859127
0.00195629 0.00751163 0.00997496
0.00607718 0.00828249 0.00354993
0.0123557 0.0101518 0.00734876
0.0143739 0.00880279 0.00733298
0.00829707 0.00169489 0.00988873
0.0104359 0.00432124 0.00985925
0 0.0057735 0.00666667
0.00196148 0.0100251 0.0075035
0 0.00863025 0.00752641
0.0123509 0.000162296 0.002354
0.0143699 0.00713357 0.00245171
0.0121644 0.00649527 0.00201252
0.0122371 0.00597799 0.00983561
0.0107681 0.00151457 0.00985559
0.012352 0.000161902 0.00735081
0.0143711 0.00155692 0.00729505
0 0.00143551 0.00581971
0.00858967 0.000112444 0.00839345
0.00605196 7.94794e-05 0.00332343
0.0114103 0.00485412 0.00189377
0.0143687 0.00448256 0.00236337
0.00607111 0.0100754 0.00658753
0.00406624 0.0100504 0.00277886
0.00188107 2.40244e-05 0.00239421
0 0.00727418 0.00419576
0.0143687 0.00595452 0.00647616
0.0100267 0.0101243 0.0029547
0.0107948 0.00877001 0.00985418
0 0.00574334 0.00336387
0 0.0043297 0.00416652
0.0098745 0.00590863 0.00986697
0.0143682 0.00320896 0.00672603
0.00606799 7.95848e-05 0.00658927
0.00355347 0.0100442 0.00856497
0.0107666 0.00150795 -0.000130209
0.0082973 0.00677114 0.00988812
0.0143739 0.00769727 0.00839423
0.0123809 0.00770677 0.009833
0.00994337 0.00315203 -0.000120387
0.00483035 0.0058062 -5.9194e-05
0.0108275 0.00876587 -0.000132024
0.0108097 0.0101338 0.00125304
0.00831311 0.00697274 -0.000101896
0.0100283 0.00649832 0.00290729
0.0108059 0.000142838 0.00125424
0.00413831 0.00505125 0.00994478
0.00621869 0.00591217 0.00991627
0.00621762 0.00424548 0.00991646
0.010809 0.0101324 0.00847232
0.0035515 4.62094e-05 0.00856632
0.0143683 0.00592526 0.00318525
0 0.00302218 0.00691532
0.0143704 0.00420299 0.00830561
0.0122289 0.00417612 -0.000147287
0.0143715 0.0028972 0.00137106
0 0.00244495 0.00857025
0.0035076 0.0086144 0.00995324
0.0108048 0.000142098 0.00847394
0.0122059 0.00278129 0.009836
0.0127279 0.00435674 0.00982826
0.00814973 0.010101 0.00572785
0.00745228 0.00767776 0.00493685
0.00811029 0.0101005 0.00411098
0.010024 0.0101241 0.00679609
0.00433727 0.0069706 0.00994196
0.0059859 0.00440783 -7.28888e-05
0.00406901 5.30934e-05 0.0043532
0.00452531 5.93454e-05 0.00576839
0.0143721 0.00438078 0.000955584
0.00522471 0.008404 0.00152198
0.0143675 0.00451369 0.00398518
0.00958648 0.00589553 -0.000117174
0.0123546 0.0101526 0.00235253
0 0.00848692 0.00262374
0.0019358 0.0100252 0.00403462
0 0.00885053 0.00419359
0.00602639 0.00892664 -7.44607e-05
0.00604082 0.0100751 0.00161104
0.00718349 0.00488437 0.00228891
0.0103818 0.00465544 -0.0001259
0.00810602 0.000106239 0.00411349
0.00814592 0.000106799 0.00572987
0.00188044 0.0100242 0.00239327
0.0123268 0.00260666 -0.000148766
0.0143681 0.0047057 0.00702826
0.0102299 0.0101269 0.00486859
0.00825256 0.00346977 0.0098889
0.00352747 4.65555e-05 0.00131207
0.0143721 0.00263372 0.00837342
0.00343551 0.0048354 0.00495588
0.00838561 0.00443877 -0.000101828
0.0119641 0.00595951 -0.00014418
0.00787435 0.0100976 0.00711742
0.0143669 0.00451401 0.00564666
0.00776589 0.0100964 0.00267686
0.0102262 0.000133552 0.00487023
0.00406999 0.0100507 0.00435116
0 0.00452174 0.00721958
0.00649416 0.00730175 0.00991241
0.00787048 0.000103149 0.00711864
0.00517335 0.00514078 0.00352999
0.00610702 0.0100756 0.00492896
0.00610387 8.03194e-05 0.00493155
0.00526991 0.00528438 0.00610729
0 0.005744 0.00499998
0 0.00433013 0.00583333
0.00718634 0.00583659 -8.77346e-05
0.00716276 0.00643088 0.00346257
0.00776189 0.000101866 0.00267872
0.0143677 0.00592458 0.00481536
0.00529874 0.00647623 0.00477596
0.00825387 0.00510454 0.00988876
0.0143716 0.00595533 0.00141563
0 0.00666667 0
0.0123592 0.00767519 -0.000149153
0.00478694 6.37478e-05 -5.84982e-05
0 0.01 0.00666667
0.00718607 0.0100883 0.00990324
0 0.00288419 0.00499914
0.0143734 0.00766703 0.00120315
0.0143765 0.00684549 -0.000168867
0 0.005 0.01
0.00718426 0.00297827 -8.72162e-05
0 0.005 0
0.0143751 0.000195658 0.00315561
0.01438 0.010168 0.00647524
0.00602875 0.00735123 -7.40839e-05
0.0143676 0.00307178 0.00481527
0.00718585 9.57284e-05 -8.77233e-05
0 0 0.00666667
0.00545393 0.00368701 0.00515671
0.00718263 9.39121e-05 0.00990452
0.014375 0.000195089 0.00647748
0 0 0.005
0.0126325 0.0101549 0.00106607
0.0143775 0.00895263 0.00104944
0.0143743 0.000195049 0.004816
0.014376 0.00518364 -0.000167697
0.00174813 0.00124268 -2.22021e-05
0 0.00122008 0.00122008
0 0.00333333 0.01
0 0.00666667 0.01
0.0126321 0.00893568 -0.000152464
0.0143797 0.0101675 0.00315313
0.0060546 0.010075 0.00332128
0.0143789 0.00684497 0.00979794
0 0.00333333 0
0 0.00122008 0.00877992
0.00174693 2.22246e-05 0.00875817
0.00174673 0.00124218 0.00997762
0.0126314 0.0101536 0.00860982
0.0017474 0.00880213 0.00997749
0 0.00877992 0.00877992
0.0143776 0.00895134 0.00858252
0.00959011 0.0101186 -0.000118634
0.0143747 0.00141355 0.00104953
0.00174766 0.0100222 0.00875742
0.0126315 0.00893371 0.00982861
0.0143782 0.00518225 0.00979855
0 0 0.00333333
0.00958562 0.00012741 -0.000116726
0.0126281 0.000167861 0.00106648
0.00173601 2.2388e-05 0.00118963
0 0.00877992 0.00122008
0.00174699 0.00880269 -2.24724e-05
0.00173516 0.0100222 0.0011888
0.0143748 0.00141204 0.00858337
0.0126288 0.00138634 0.00982979
0.00958252 0.000125693 0.00987203
0.0126294 0.00138818 -0.000151954
0.0126276 0.000166672 0.00861157
0.0143766 0.00352114 -0.000167378
0.00478641 0.0100589 0.0099356
0.00352764 0.010044 0.00131095
0.00958709 0.0101174 0.00987082
0.0143775 0.00351906 0.00979841
0 0.01 0.005
0.00376552 0.00853511 -4.67516e-05
0.014379 0.0101677 0.00481556
0 0.01 0.00333333
0 0.00166667 0
0.0143777 0.000195562 0.00149444
0 0.00166667 0.01
0 0.00833333 0
0.0143801 0.00850837 -0.000169454
0.0143777 0.000194757 0.00813929
0.0143825 0.0101694 0.00149423
0.0143824 0.0101682 0.00813744
0.00238937 0.0100295 0.00996868
0 0.01 0.00833333
0.0119925 0.0101469 -0.000146097
0.0119879 0.000160407 -0.000145223
0.0119867 0.000158496 0.00983938
0.0119909 0.0101452 0.00983797
0 0 0.00833333
0.0143817 0.00850544 0.00979886
0.00238993 3.17987e-05 -2.99744e-05
0 0 0.00166667
0.00478806 0.0100597 -5.95061e-05
0.0143791 0.00185811 0.00979968
0.0143786 0.00186016 -0.000168192
0.00238774 3.08162e-05 0.00996937
0.0023891 0.01003 -3.05028e-05
0 0.01 0.00166667
0.0143866 0.01017 0.00980021
0 0 0.01
0.0143864 0.0101704 -0.000170744
0.0143823 0.000193578 0.0098023
0 0.01 0.01
0.0143823 0.000195371 -0.000169794
0 0.01 0
0 0 0
0.00718881 0.0100891 -8.93389e-05
0.00478406 6.2334e-05 0.00993648
0 0.00833333 0.01

CELLS 343 686
1 0
1 1
1 2
1 3
1 4
1 5
1 6
1 7
1 8
1 9
1 10
1 11
1 12
1 13
1 14
1 15
1 16
1 17
1 18
1 19
1 20
1 21
1 22
1 23
1 24
1 25
1 26
1 27
1 28
1 29
1 30
1 31
1 32
1 33
1 34
1 35
1 36
1 37
1 38
1 39
1 40
1 41
1 42
1 43
1 44
1 45
1 46
1 47
1 48
1 49
1 50
1 51
1 52
1 53
1 54
1 55
1 56
1 57
1 58
1 59
1 60
1 61
1 62
1 63
1 64
1 65
1 66
1 67
1 68
1 69
1 70
1 71
1 72
1 73
1 74
1 75
1 76
1 77
1 78
1 79
1 80
1 81
1 82
1 83
1 84
1 85
1 86
1 87
1 88
1 89
1 90
1 91
1 92
1 93
1 94
1 95
1 96
1 97
1 98
1 99
1 100
1 101
1 102
1 103
1 104
1 105
1 106
1 107
1 108
1 109
1 110
1 111
1 112
1 113
1 114
1 115
1 116
1 117
1 118
1 119
1 120
1 121
1 122
1 123
1 124
1 125
1 126
1 127
1 128
1 129
1 130
1 131
1 132
1 133
1 134
1 135
1 136
1 137
1 138
1 139
1 140
1 141
1 142
1 143
1 144
1 145
1 146
1 147
1 148
1 149
1 150
1 151
1 152
1 153
1 154
1 155
1 156
1 157
1 158
1 159
1 160
1 161
1 162
1 163
1 164
1 165
1 166
1 167
1 168
1 169
1 170
1 171
1 172
1 173
1 174
1 175
1 176
1 177
1 178
1 179
1 180
1 181
1 182
1 183
1 184
1 185
1 186
1 187
1 188
1 189
1 190
1 191
1 192
1 193
1 194
1 195
1 196
1 197
1 198
1 199
1 200
1 201
1 202
1 203
1 204
1 205
1 206
1 207
1 208
1 209
1 210
1 211
1 212
1 213
1 214
1 215
1 216
1 217
1 218
1 219
1 220
1 221
1 222
1 223
1 224
1 225
1 226
1 227
1 228
1 229
1 230
1 231
1 232
1 233
1 234
1 235
1 236
1 237
1 238
1 239
1 240
1 241
1 242
1 243
1 244
1 245
1 246
1 247
1 248
1 249
1 250
1 251
1 252
1 253
1 254
1 255
1 256
1 257
1 258
1 259
1 260
1 261
1 262
1 263
1 264
1 265
1 266
1 267
1 268
1 269
1 270
1 271
1 272
1 273
1 274
1 275
1 276
1 277
1 278
1 279
1 280
1 281
1 282
1 283
1 284
1 285
1 286
1 287
1 288
1 289
1 290
1 291
1 292
1 293
1 294
1 295
1 296
1 297
1 298
1 299
1 300
1 301
1 302
1 303
1 304
1 305
1 306
1 307
1 308
1 309
1 310
1 311
1 312
1 313
1 314
1 315
1 316
1 317
1 318
1 319
1 320
1 321
1 322
1 323
1 324
1 325
1 326
1 327
1 328
1 329
1 330
1 331
1 332
1 333
1 334
1 335
1 336
1 337
1 338
1 339
1 340
1 341
1 342

CELL_TYPES 343
1
1
1
1
1
1
1
1
1
1
1
1
1
1
1
1
1
1
1
1
1
1
1
1
1
1
1
1
1
1
1
1
1
1
1
1
1
1
1
1
1
1
1
1
1
1
1
1
1
1
1
1
1
1
1
1
1
1
1
1
1
1
1
1
1
1
1
1
1
1
1
1
1
1
1
1
1
1
1
1
1
1
1
1
1
1
1
1
1
1
1
1
1
1
1
1
1
1
1
1
1
1
1
1
1
1
1
1
1
1
1
1
1
1
1
1
1
1
1
1
1
1
1
1
1
1
1
1
1
1
1
1
1
1
1
1
1
1
1
1
1
1
1
1
1
1
1
1
1
1
1
1
1
1
1
1
1
1
1
1
1
1
1
1
1
1
1
1
1
1
1
1
1
1
1
1
1
1
1
1
1
1
1
1
1
1
1
1
1
1
1
1
1
1
1
1
1
1
1
1
1
1
1
1
1
1
1
1
1
1
1
1
1
1
1
1
1
1
1
1
1
1
1
1
1
1
1
1
1
1
1
1
1
1
1
1
1
1
1
1
1
1
1
1
1
1
1
1
1
1
1
1
1
1
1
1
1
1
1
1
1
1
1
1
1
1
1
1
1
1
1
1
1
1
1
1
1
1
1
1
1
1
1
1
1
1
1
1
1
1
1
1
1
1
1
1
1
1
1
1
1
1
1
1
1
1
1
1
1
1
1
1
1
1
1
1
1
1
1
1
1
1
1
1
1
1
1
1
1
1
1
1
1
1
1
1
1
1
1
1
1
1
1

POINT_DATA 343
FIELD FieldData 8

NodeID_(#) 1 343 int
0
1
2
3
4
5
6
7
8
9
10
11
12
13
14
15
16
17
18
19
20
21
22
23
24
25
26
27
28
29
30
31
32
33
34
35
36
37
38
39
40
41
42
43
44
45
46
47
48
49
50
51
52
53
54
55
56
57
58
59
60
61
62
63
64
65
66
67
68
69
70
71
72
73
74
75
76
77
78
79
80
81
82
83
84
85
86
87
88
89
90
91
92
93
94
95
96
97
98
99
100
101
102
103
104
105
106
107
108
109
110
111
112
113
114
115
116
117
118
119
120
121
122
123
124
125
126
127
128
129
130
131
132
133
134
135
136
137
138
139
140
141
142
143
144
145
146
147
148
149
150
151
152
153
154
155
156
157
158
159
160
161
162
163
164
165
166
167
168
169
170
171
172
173
174
175
176
177
178
179
180
181
182
183
184
185
186
187
188
189
190
191
192
193
194
195
196
197
198
199
200
201
202
203
204
205
206
207
208
209
210
211
212
213
214
215
216
217
218
219
220
221
222
223
224
225
226
227
228
229
230
231
232
233
234
235
236
237
238
239
240
241
242
243
244
245
246
247
248
249
250
251
252
253
254
255
256
257
258
259
260
261
262
263
264
265
266
267
268
269
270
271
272
273
274
275
276
277
278
279
280
281
282
283
284
285
286
287
288
289
290
291
292
293
294
295
296
297
298
299
300
301
302
303
304
305
306
307
308
309
310
311
312
313
314
315
316
317
318
319
320
321
322
323
324
325
326
327
328
329
330
331
332
333
334
335
336
337
338
339
340
341
342

Component_(#) 1 343 int
0
0
0
0
0
0
0
0
0
0
0
0
0
0
0
0
0
0
0
0
0
0
0
0
0
0
0
0
0
0
0
0
0
0
0
0
0
0
0
0
0
0
0
0
0
0
0
0
0
0
0
0
0
0
0
0
0
0
0
0
0
0
0
0
0
0
0
0
0
0
0
0
0
0
0
0
0
0
0
0
0
0
0
0
0
0
0
0
0
0
0
0
0
0
0
0
0
0
0
0
0
0
0
0
0
0
0
0
0
0
0
0
0
0
0
0
0
0
0
0
0
0
0
0
0
0
0
0
0
0
0
0
0
0
0
0
0
0
0
0
0
0
0
0
0
0
0
0
0
0
0
0
0
0
0
0
0
0
0
0
0
0
0
0
0
0
0
0
0
0
0
0
0
0
0
0
0
0
0
0
0
0
0
0
0
0
0
0
0
0
0
0
0
0
0
0
0
0
0
0
0
0
0
0
0
0
0
0
0
0
0
0
0
0
0
0
0
0
0
0
0
0
0
0
0
0
0
0
0
0
0
0
0
0
0
0
0
0
0
0
0
0
0
0
0
0
0
0
0
0
0
0
0
0
0
0
0
0
0
0
0
0
0
0
0
0
0
0
0
0
0
0
0
0
0
0
0
0
0
0
0
0
0
0
0
0
0
0
0
0
0
0
0
0
0
0
0
0
0
0
0
0
0
0
0
0
0
0
0
0
0
0
0
0
0
0
0
0
0
0
0
0
0
0
0
0
0
0
0
0
0
0
0
0
0
0
0
0
0
0
0
0
0

NodalMass_(kg) 1 343 double
3.15563e-06
1.41304e-05
2.20912e-06
1.71484e-05
8.42e-06
9.09306e-06
1.01179e-05
7.52198e-06
6.81096e-06
5.58223e-06
3.10888e-06
1.07575e-05
4.87011e-06
1.64955e-05
3.0246e-06
8.05984e-06
6.703e-06
1.0877e-05
4.18978e-06
8.16106e-06
6.14143e-06
1.17902e-05
2.23114e-06
4.25176e-06
1.09915e-05
7.41467e-06
4.21871e-06
3.92484e-06
3.08766e-06
1.31268e-05
7.72627e-06
1.65404e-05
1.19037e-05
7.97564e-06
3.81683e-06
1.11001e-05
3.81317e-06
1.39137e-05
6.37414e-06
8.00975e-06
7.6712e-06
1.21135e-05
1.6399e-05
2.78633e-06
8.93599e-06
2.58087e-06
7.57362e-06
4.23241e-06
1.31286e-05
3.80168e-06
2.7746e-06
7.16776e-06
1.21307e-05
5.11765e-06
8.19728e-06
4.58094e-06
2.79503e-06
3.26126e-06
4.12443e-06
2.11915e-06
3.35177e-06
3.61669e-06
1.56838e-05
7.33679e-06
8.24695e-06
5.00369e-06
2.82625e-06
7.20276e-06
3.26815e-06
4.18751e-06
2.02785e-06
2.42152e-06
3.11835e-06
5.97459e-06
5.87101e-06
4.09374e-06
5.45463e-06
2.28825e-06
4.49759e-06
4.38192e-06
4.50892e-06
4.39234e-06
4.27273e-06
5.32031e-06
1.53201e-06
2.38869e-06
2.02885e-06
4.38798e-06
3.17972e-06
3.14298e-06
4.61567e-06
5.87645e-06
8.18088e-06
2.48341e-06
1.53815e-05
3.49683e-06
7.35227e-06
2.01314e-06
2.0408e-06
7.98183e-06
4.41293e-06
7.1389e-06
1.20123e-06
5.03343e-06
1.61257e-06
4.12601e-06
8.73748e-06
4.37849e-06
7.97173e-06
2.13557e-06
3.38137e-06
9.48623e-06
7.40262e-06
1.80226e-06
2.10222e-06
7.98889e-06
1.87983e-06
7.44814e-06
4.19782e-06
2.37156e-06
4.31705e-06
6.06441e-06
4.30905e-06
2.16843e-06
1.8986e-06
1.81294e-06
3.89762e-06
2.44299e-06
1.65628e-06
8.01374e-06
1.64513e-06
2.3931e-06
3.01363e-06
2.99431e-06
1.36541e-06
1.87293e-06
2.09622e-06
1.94762e-06
1.87618e-06
6.37913e-06
4.58628e-06
2.02767e-06
1.61999e-06
2.41284e-06
3.8865e-06
4.44973e-06
2.29839e-06
1.17349e-05
3.11811e-06
1.354e-06
3.45063e-06
1.81846e-06
2.9382e-06
1.37381e-06
2.41464e-06
2.10451e-06
2.63927e-06
2.14166e-06
1.7943e-06
3.19976e-06
1.36989e-06
2.43489e-06
2.08158e-06
1.3601e-06
2.17203e-06
1.89924e-06
3.16996e-06
2.6119e-06
2.37677e-06
1.60225e-06
1.90684e-06
5.49206e-06
1.87878e-06
3.14313e-06
2.97301e-06
1.18454e-06
1.89263e-06
2.04166e-06
2.73572e-06
2.42405e-06
3.23083e-06
3.19752e-06
3.2142e-06
1.94492e-06
1.61196e-06
1.86876e-06
3.22435e-06
2.1114e-06
2.96917e-06
6.15288e-06
2.3097e-06
2.39729e-06
2.38029e-06
2.64508e-06
1.66557e-06
1.82377e-06
2.06583e-06
5.73271e-06
2.08467e-06
2.18324e-06
2.43522e-06
3.1188e-06
3.17316e-06
2.05447e-06
1.9592e-06
3.05718e-06
6.44327e-06
2.08796e-06
2.72615e-06
2.15709e-06
1.86812e-06
2.0028e-06
2.10999e-06
2.88994e-06
2.3222e-06
2.3979e-06
1.97629e-06
6.4127e-06
2.16225e-06
3.29198e-06
2.10223e-06
2.66566e-06
1.94415e-06
2.91865e-06
2.58116e-06
2.11703e-06
2.09534e-06
1.91719e-06
7.06046e-06
2.25203e-06
2.06378e-06
6.28159e-06
2.12147e-06
2.90924e-06
2.12921e-06
6.4487e-06
1.41701e-06
2.0682e-06
6.58062e-06
2.52584e-06
2.39732e-06
7.42191e-07
2.22368e-06
7.06751e-07
7.00657e-07
8.93749e-07
2.53536e-06
2.26535e-06
1.33607e-06
7.84725e-07
2.32303e-06
6.06694e-07
6.68276e-07
6.84307e-07
2.51242e-06
2.31629e-06
7.8367e-07
6.80839e-07
6.22692e-06
6.7471e-07
6.65305e-07
7.01158e-07
1.8232e-06
1.90695e-06
6.86722e-07
7.04792e-07
1.86445e-06
2.28572e-06
6.8045e-07
7.16005e-07
1.82373e-06
6.01079e-07
2.02791e-06
7.4579e-07
5.74423e-07
1.80052e-06
1.454e-06
2.2702e-06
1.80636e-06
2.15356e-06
1.79089e-06
1.79456e-06
6.8231e-07
2.24737e-06
1.45239e-06
1.79556e-06
6.97875e-07
6.24265e-07
6.62717e-07
1.44627e-06
1.40138e-06
2.15258e-06
1.82851e-06
1.3994e-06
1.43932e-06
2.19226e-06
6.97732e-07
1.77726e-06
1.79162e-06
6.54258e-07
7.3397e-07
2.34895e-06
7.10392e-07
6.56982e-07
6.26314e-07
2.18926e-06
6.12493e-07
6.03901e-07
5.92831e-07
5.12031e-07
5.11667e-07
4.9467e-07
4.97016e-07
4.96269e-07
5.33079e-07
4.94191e-07
4.97855e-07
4.86862e-07
4.90626e-07
4.94649e-07
4.94954e-07
4.91922e-07
4.89615e-07
4.96354e-07
4.95189e-07
4.82188e-07
1.10854e-06
5.3299e-07
5.44763e-07
5.36655e-07
5.15417e-07
5.01772e-07
5.53774e-07
5.53774e-07
5.53774e-07
5.53774e-07
5.53774e-07
5.53774e-07
5.50785e-07
5.50785e-07
7.45291e-07
7.11668e-07
4.9897e-07

NodalForce_(N) 3 343 double
2.34662e-07 -3.99653e-08 2.32239e-08
1.63497e-06 -5.55345e-07 5.9282e-07
0.000141383 -4.31298e-05 0.000562903
2.83302e-07 -7.19815e-07 5.71638e-07
-2.15786e-06 -3.22725e-06 2.94492e-06
-2.52769e-06 -3.00699e-06 3.48293e-06
-1.52852e-07 -7.24915e-06 8.53141e-06
1.2932e-06 -3.53818e-06 4.05677e-06
-3.14988e-06 -4.26844e-06 4.84705e-06
-2.64745e-09 -1.59324e-06 1.80872e-06
-2.28721e-06 -9.99851e-07 1.08609e-06
-6.70513e-06 -4.6023e-06 4.95828e-06
-3.32743e-06 -1.67919e-06 1.50347e-06
-2.78709e-06 -6.53544e-07 7.58524e-07
-1.93555e-06 -8.3509e-07 1.12277e-06
-7.93616e-07 -4.60662e-06 5.93226e-06
8.05595e-07 -3.24743e-06 3.90777e-06
-9.07074e-07 -5.8634e-07 5.90593e-07
0.000918204 0.000536771 0.000452443
9.26051e-09 -1.27027e-07 1.35215e-07
3.81934e-07 -3.89481e-06 4.09581e-06
-4.0783e-06 -9.84335e-06 1.03546e-05
0.00184138 -0.000179721 0.000459567
7.46022e-07 -1.34459e-06 1.23349e-06
4.08143e-07 -4.33999e-06 4.46573e-06
1.48026e-06 -1.48065e-06 2.00594e-06
-3.58034e-07 -6.15658e-08 9.30306e-08
-4.29245e-07 -1.2682e-06 1.17856e-06
1.18062e-06 -1.77816e-07 3.3467e-07
2.38278e-06 -2.47629e-07 5.22246e-07
2.97904e-06 -1.17301e-06 2.1688e-06
-9.63102e-07 -1.28618e-05 1.65808e-05
-5.67219e-06 -9.32823e-06 1.17598e-05
1.59073e-07 -6.73154e-06 8.25349e-06
2.64882e-06 -4.43541e-06 5.24464e-06
4.04351e-06 -7.69662e-06 9.17674e-06
3.12504e-06 -3.48159e-06 4.00099e-06
1.21349e-05 -1.06081e-05 1.29489e-05
-1.4668e-06 -9.82718e-07 1.07204e-06
-3.32651e-06 -1.8989e-06 2.85527e-06
-2.46723e-06 -1.89264e-06 1.38091e-06
-4.90015e-07 -3.74167e-06 5.05785e-06
-2.73323e-07 -6.47062e-07 6.61117e-07
4.41108e-07 -2.91154e-07 2.65095e-07
1.58789e-06 -1.71457e-06 1.71344e-06
0.000929222 -0.000152639 -0.000325776
4.26802e-07 -2.15159e-07 2.01597e-07
0.000529111 0.000478449 -0.000389753
-9.77498e-07 -5.60041e-07 7.96515e-07
-4.1246e-07 -7.66975e-08 7.75878e-08
-1.16174e-06 -1.75743e-06 2.44892e-06
-2.29665e-06 -3.18299e-06 4.58161e-06
1.05038e-06 -2.63833e-07 4.80222e-07
1.2244e-07 -3.93292e-07 5.31768e-07
-1.8506e-08 -1.70622e-07 2.1683e-07
-1.69726e-06 -5.36254e-06 6.64097e-06
0.000665908 -0.000274985 -3.20155e-05
5.27959e-07 -7.63652e-08 7.97201e-08
0.00192299 -0.000614475 0.000729813
5.1082e-09 -2.45241e-06 3.03662e-06
-1.3076e-06 -3.42935e-07 5.87744e-07
-1.12498e-06 -4.68089e-06 4.98709e-06
1.41562e-06 -1.41442e-05 1.46696e-05
-9.82641e-08 -6.62408e-06 7.4247e-06
-1.54343e-06 -1.89221e-06 1.32381e-06
4.48168e-07 -4.30557e-08 1.00524e-07
-1.06413e-06 -4.50889e-07 2.7502e-07
-3.73035e-06 -3.38128e-06 4.57279e-06
1.58308e-06 -3.75561e-06 4.48524e-06
-2.13117e-06 -4.39301e-06 4.41395e-06
5.54504e-07 -2.90614e-07 3.75829e-07
-1.13464e-06 -3.15638e-07 3.78027e-07
-6.11389e-07 -5.02078e-07 3.03573e-07
-1.51347e-06 -1.51357e-06 2.26113e-06
3.11864e-08 -6.61697e-07 6.556e-07
0.00112553 -0.000380048 -0.000488619
4.2632e-08 -1.61313e-06 1.73571e-06
1.97562e-07 -3.80209e-08 4.36033e-08
-1.21753e-06 -2.01401e-06 2.8089e-06
4.17811e-07 -2.11762e-06 2.81087e-06
3.22107e-07 -1.11948e-06 1.48572e-06
-8.55989e-07 -1.05022e-06 1.41863e-06
1.63701e-06 -4.94815e-06 5.98755e-06
9.87004e-07 -4.34876e-07 6.20857e-07
0.00116413 0.000429991 0.000140345
3.87042e-07 3.28681e-09 2.28331e-08
0.00120264 -3.78015e-05 -0.000348495
0.00211751 -0.00019018 -0.000492047
0.00110175 0.000719188 -0.000570838
8.80664e-07 -2.20598e-07 3.21467e-07
-4.67279e-07 -6.91875e-08 1.0255e-07
-7.49513e-08 -1.77787e-06 2.27818e-06
-1.34688e-06 -9.43953e-07 1.88795e-06
-2.35733e-06 -1.70312e-06 2.06263e-06
-1.3045e-05 -1.37904e-05 1.51664e-05
-1.07631e-06 -2.64772e-06 2.46193e-06
-1.2966e-06 -4.06424e-06 3.78949e-06
2.73083e-08 -2.49493e-06 2.76687e-06
0.00176648 0.000742701 -9.78656e-05
1.34997e-06 -4.07315e-06 4.7591e-06
9.7189e-07 -2.42384e-06 2.43787e-06
1.90377e-06 -3.52446e-06 4.12981e-06
2.8407e-07 -1.76798e-07 1.5704e-07
2.76689e-06 -4.63546e-06 5.36926e-06
2.02498e-07 -2.06051e-07 1.82643e-07
-4.60717e-07 -2.44037e-06 2.40837e-06
4.8916e-06 -4.288e-06 4.90063e-06
-3.37546e-06 -4.5744e-06 4.65883e-06
-4.40135e-06 -4.60081e-06 4.47196e-06
-2.93714e-07 -1.8682e-08 4.45487e-08
3.30935e-06 -2.04658e-06 2.71535e-06
5.60824e-06 -3.0276e-06 3.92993e-06
4.17947e-06 -2.94582e-06 4.16419e-06
0.000847787 0.000397624 -0.000306196
-1.30147e-07 -2.72739e-06 2.88294e-06
-4.85884e-07 -2.11181e-07 2.82209e-07
1.68199e-06 -2.17396e-06 2.59715e-06
2.38831e-06 -6.31452e-06 7.50551e-06
4.18524e-06 -2.05191e-06 2.42276e-06
-2.0584e-06 -1.82006e-06 1.70969e-06
-2.48121e-06 -5.5831e-06 6.02267e-06
-2.06139e-06 -5.44549e-06 6.29085e-06
-5.27022e-07 -1.13234e-07 9.23796e-08
0.00147675 0.000230424 0.000335435
-2.63728e-07 -6.14179e-08 1.03403e-08
3.14677e-07 -2.08583e-06 2.53546e-06
3.93366e-06 -1.64296e-06 2.22882e-06
0.00165594 0.000506504 -0.000664306
-1.27775e-07 -3.86959e-08 4.57067e-08
3.00579e-06 -1.72862e-06 1.71109e-06
4.68286e-07 -1.53541e-06 1.8449e-06
3.09996e-07 -2.76763e-06 3.44838e-06
-2.92508e-06 -1.58564e-06 1.8338e-06
-2.37228e-06 -2.01337e-06 2.68231e-06
0.000922719 -0.000125787 0.000403007
7.93572e-08 -1.06134e-08 2.92649e-08
0.00149265 -0.000429055 0.000342167
-4.86935e-07 -2.07324e-06 2.06213e-06
1.29108e-06 -2.13901e-06 2.57577e-06
4.1602e-06 -5.42982e-06 6.5305e-06
-2.91854e-06 -4.04817e-06 5.27342e-06
-2.30889e-06 -1.68529e-06 1.89816e-06
-1.67579e-06 -1.73029e-06 1.76044e-06
-2.04739e-06 -3.14199e-06 3.42653e-06
0.0011505 0.000513798 -0.000699446
-4.37508e-06 -2.66713e-06 2.6361e-06
-6.54384e-07 -7.81649e-07 5.47444e-07
5.12779e-06 -9.24355e-06 1.06628e-05
1.0444e-06 -3.74449e-06 4.24359e-06
3.37942e-07 -3.52247e-07 3.41182e-07
1.28933e-06 -3.67997e-07 3.28611e-07
-8.55389e-08 -2.48642e-08 2.19615e-08
0.00243625 0.00082319 -5.72835e-05
-1.6566e-07 -1.60354e-06 1.93958e-06
2.13274e-06 -1.56347e-06 1.70682e-06
-5.32361e-07 -1.53792e-06 2.02816e-06
0.00150602 0.000232027 -0.000685021
0.00096482 0.000798027 0.00171604
-1.03772e-06 -1.03233e-06 1.49009e-06
-1.72147e-06 -3.93409e-06 4.52335e-06
-7.68651e-07 -4.76818e-07 3.3055e-07
1.11339e-07 -2.05039e-07 2.64187e-07
5.52464e-07 -1.73611e-06 1.80437e-06
-5.85502e-07 -5.42653e-07 8.57488e-07
-3.99717e-07 -2.5171e-06 3.15796e-06
-7.81664e-07 -1.71318e-06 2.23876e-06
1.40006e-06 -2.08428e-06 2.41445e-06
1.14869e-06 -2.45537e-07 5.15246e-07
2.83188e-06 -1.65011e-06 2.12158e-06
1.8592e-06 -1.182e-06 1.39171e-06
1.56986e-06 -7.44085e-07 1.08294e-06
2.58728e-06 -3.15595e-06 3.86285e-06
-1.611e-07 -1.63943e-06 1.61399e-06
-9.78895e-07 -2.90538e-07 5.81176e-07
-1.2909e-06 -5.97139e-07 1.16842e-06
-6.34152e-07 -2.65936e-07 4.68422e-07
1.81619e-07 -1.41439e-06 1.7809e-06
-8.24295e-07 -3.00351e-07 1.8089e-07
1.10755e-06 -3.19955e-06 3.73347e-06
0.00176098 -0.000140798 0.000242258
-2.10066e-06 -3.87935e-06 4.67255e-06
2.10885e-06 -2.9486e-06 3.42984e-06
8.85076e-07 -4.02654e-06 4.36625e-06
0.00136561 -0.000135841 -0.000379289
-2.27708e-07 -1.54284e-07 2.23421e-07
-2.11824e-06 -1.65145e-06 1.66598e-06
-3.43408e-06 -3.09916e-06 3.66247e-06
-1.8255e-06 -2.06724e-06 2.56951e-06
1.16265e-06 -1.33525e-06 1.35496e-06
1.45899e-06 -1.98134e-06 2.20118e-06
1.39367e-06 -1.02997e-06 1.0073e-06
7.71278e-07 -1.55263e-06 1.74926e-06
-5.9159e-07 -1.628e-07 4.86058e-07
1.14972e-06 -5.24497e-07 8.43963e-07
-4.18802e-07 -2.91784e-07 1.54207e-07
-6.5106e-07 -3.67226e-07 2.13555e-07
1.11347e-06 -2.48914e-06 2.82286e-06
2.74778e-06 -9.42465e-07 1.32512e-06
1.7186e-07 -2.49176e-06 2.87845e-06
1.68418e-06 -1.15754e-06 1.57314e-06
2.6344e-06 -2.24128e-06 2.58369e-06
0.00142683 -0.000205111 -4.59526e-05
3.09977e-07 -4.34983e-08 5.01344e-08
0.00133284 -0.000674556 -5.64602e-05
1.51721e-06 -4.66611e-07 6.46784e-07
2.16537e-06 -8.1744e-07 8.9267e-07
1.73271e-06 -1.78359e-06 2.42141e-06
1.35158e-06 -1.39007e-06 1.70991e-06
-1.11201e-06 -1.49402e-06 1.19858e-06
-1.34536e-06 -1.19104e-06 9.56085e-07
2.56169e-07 -2.91111e-08 9.29387e-09
9.04806e-07 -1.96998e-06 2.16609e-06
-8.02188e-07 -2.50899e-06 3.00101e-06
1.77909e-06 -1.93583e-06 2.12943e-06
-1.78198e-06 -1.0443e-06 1.42288e-06
-1.99305e-07 -2.78936e-07 2.13892e-07
-1.72711e-06 -2.49905e-06 2.85674e-06
5.70972e-08 -3.3497e-07 4.3977e-07
1.15007e-06 -9.41489e-07 1.26609e-06
2.9338e-06 -2.72032e-06 3.44143e-06
4.91537e-07 -8.75483e-07 9.94593e-07
-4.98097e-07 -3.18042e-06 3.73502e-06
1.47854e-06 -7.98359e-07 8.21996e-07
-1.7234e-06 -2.27853e-06 2.15021e-06
7.64818e-07 -2.73592e-07 2.17749e-07
0.00170835 0.000323199 0.000661342
-6.75422e-07 -4.97704e-07 8.66125e-07
-1.46753e-06 -9.97301e-07 8.61456e-07
7.03236e-07 -8.98364e-07 1.01687e-06
9.30499e-07 -6.00817e-07 5.15013e-07
-8.78101e-07 -7.24729e-07 4.48375e-07
-3.38241e-07 -8.15632e-07 1.05293e-06
0.00193677 -0.00137929 6.56195e-05
0.00202508 0.000738779 -0.00115298
1.32671e-06 -5.39648e-07 9.62064e-07
1.83557e-06 -1.75515e-06 2.14323e-06
-3.47451e-07 -7.22126e-07 6.2077e-07
2.92932e-07 -2.41334e-06 2.87136e-06
6.75681e-07 -8.28205e-07 9.75209e-07
-1.50187e-06 -9.90778e-07 1.58019e-06
1.64499e-06 -2.79696e-06 3.2719e-06
0.000720846 0.00074773 -7.36507e-05
2.51714e-06 -1.946e-06 2.45066e-06
3.01475e-08 -1.97493e-07 1.71018e-07
0.000836154 5.612e-05 -0.000989638
-1.04409e-07 -3.46852e-07 4.67896e-07
0.0019192 -0.00120653 0.000171423
2.16371e-06 -2.57149e-06 3.10695e-06
1.40007e-06 -1.53894e-06 1.87497e-06
0.000824214 -0.00103813 6.45245e-05
7.84466e-07 -8.20315e-07 1.0006e-06
0.00071682 0.00118496 -9.10376e-05
-2.5223e-07 -8.97904e-07 9.20726e-07
3.06059e-07 -8.17195e-07 9.69711e-07
1.6281e-06 -4.67404e-07 8.25444e-07
-5.85649e-07 -2.85274e-06 3.22293e-06
5.50858e-08 -3.85059e-07 3.60575e-07
0.000721393 -0.000135269 0.000809897
-6.24184e-07 -1.00618e-06 1.01166e-06
-6.60705e-07 -3.0761e-07 3.26599e-07
-6.01263e-07 -8.88543e-07 9.31042e-07
0.000481218 -0.000370363 0.00102578
2.33871e-06 -1.73074e-06 2.05145e-06
2.19774e-06 -2.20516e-06 2.62922e-06
-4.40625e-07 -9.16754e-07 9.54345e-07
5.74383e-07 -8.28993e-07 9.8582e-07
6.93625e-08 -6.49788e-08 2.37856e-08
0.00102926 0.000428397 0.000141501
0.00073618 -0.00102287 0.000111664
0.00079159 -0.000970425 2.2167e-05
2.37229e-06 -1.67486e-06 2.07995e-06
5.89597e-07 -7.1013e-07 8.27597e-07
1.11842e-06 -5.40591e-07 4.42248e-07
-3.89675e-07 -8.67548e-07 1.11671e-06
0.000708543 0.000540106 8.06302e-05
0.000413839 0.000351488 -0.00053402
-2.10651e-07 -5.65848e-08 2.22115e-08
-2.98441e-07 -4.8075e-08 4.18196e-08
1.67981e-07 -1.76806e-06 2.20036e-06
-9.90177e-08 -5.3066e-08 4.97792e-08
0.000642866 -0.000291366 -0.000259209
-8.0388e-08 -2.10894e-06 2.63959e-06
8.66772e-07 -4.04405e-07 4.95868e-07
2.7127e-07 -2.95351e-06 3.07043e-06
2.11628e-08 -2.33511e-08 6.32049e-08
-4.49229e-07 -1.73398e-06 2.20827e-06
-5.25187e-07 -8.34461e-07 1.03996e-06