# vtk DataFile Version 4.2
vtk output
ASCII
DATASET UNSTRUCTURED_GRID

POINTS 343 double
0.0016115 0.00421629 -2.06546e-05
0.00311682 0.00502412 0.00213511
0 0.00419538 0.00112517
0.00277469 0.00199124 0.00190647
0.00744796 0.0025121 0.00493812
0.00744492 0.00393293 0.00630252
0.0109758 0.00493064 0.00486017
0.00896134 0.00497575 0.00357926
0.00984816 0.00342837 0.00678787
0.00718035 0.00509122 0.00490882
0.0060225 0.00120289 0.00991995
0.0076083 0.00218777 0.00780569
0.0060419 7.85897e-05 0.00823976
0.00289111 0.00204026 0.00799655
0.00616994 0.00261799 0.0099176
0.0100063 0.00658559 0.00681822
0.00922689 0.00631047 0.00506625
0.00324985 0.00222783 0.00510463
0 0.00143586 0.00417514
0.00228987 0.00349622 0.00400765
0.00985246 0.00333459 0.00303883
0.0111661 0.00237577 0.0049227
0 0.00270918 0.00154168
0.00599663 0.00151441 -7.26968e-05
0.00721855 0.00229054 0.0021077
0.00570457 0.00360567 0.00153203
0.00193549 2.44237e-05 0.00403546
0.00603672 7.90946e-05 0.00161262
0.00377205 0.00700245 -4.63811e-05
0.0027777 0.00808956 0.00190875
0.00587721 0.00632791 0.00157159
0.0115078 0.00814445 0.00784706
0.0114678 0.00497828 0.0078727
0.0120692 0.00625011 0.00579314
0.0143699 0.00902115 0.00401309
0.0108967 0.00778673 0.00482569
0.012313 0.0101512 0.00401209
0.0114744 0.00813095 0.00187417
0.00508672 0.00310528 0.00689503
0.00638468 0.00374886 0.00824064
0.00560687 0.0016791 0.00589807
0.00719022 0.00776543 0.0075836
0.00285127 0.00804554 0.00795332
0.00405203 0.0100504 0.00707511
0.00562168 0.00847467 0.00588577
0 0.00695361 0.00262895
0.00236171 0.00627054 0.00405749
0 0.0040177 0.00850214
0.0033223 0.00502927 0.00761923
0.00205604 0.00420087 0.00997381
0.0103171 0.00725971 0.00986138
0.00879894 0.00609162 0.0083023
0.00294157 0.00798038 0.0047039
0.00436936 0.00700155 0.00641234
0.00227634 0.00610837 0.00589676
0.0143675 0.00598722 0.00812283
0 0.00718191 0.00711644
0.00227329 0.00580403 -2.89485e-05
0 0.00577432 0.00158701
0.014368 0.00735802 0.00692599
0.00412141 0.00340385 0.009945
0.0143654 0.00162582 0.00399577
0.0115906 0.00211301 0.00183698
0.0120857 0.00367635 0.00384689
0.00536787 0.00172333 0.00406001
0.00216019 0.0100277 0.00578706
0.00404946 5.28073e-05 0.00707676
0.00879491 0.00429374 0.00826086
0.0143665 0.00745217 0.00401591
0.0123074 0.00015905 0.00401355
0.0048122 0.00293639 -5.85564e-05
0.00388478 0.00159138 0.00994841
0.00406422 5.32384e-05 0.00278038
0.00689984 0.00528804 0.0074648
0.00454345 0.00320784 0.00310898
0 0.00849157 0.00581511
0.00700442 0.00376692 0.00369753
0.00220885 0.00273785 -2.80282e-05
0.00833139 0.00842846 0.00988784
0.00859244 0.0101056 0.00839258
0.00604541 0.0100748 0.00823852
0.00576662 0.00857536 0.00992235
0.0143684 0.00866331 0.00562811
0.00452008 0.00689463 0.00309214
0 0.00748929 0.00137438
0.00196798 0.00751499 -2.51863e-05
0 0.00287343 0.00335182
0 0.00580816 0.00831736
0 0.00429792 0.00253898
0.00364267 0.00434537 -4.47635e-05
0.00205556 0.0058457 0.00997372
0.00743962 0.0065701 0.00630465
0.00517518 0.0065782 0.00816642
0.0099888 0.0027556 0.00986617
0.0115333 0.0021072 0.00788419
0.0100198 0.000130321 0.00295721
0.00865235 0.00177707 0.00350439
0.0143652 0.00305943 0.00317403
0 0.00140616 0.00256446
0.00915953 0.00834187 0.00630295
0.00836386 0.0015452 -0.000100922
0.00867729 0.00366417 0.00149631
0.00452672 0.0100562 0.00576626
0.0123046 0.0101514 0.00567396
0.0036798 0.00145436 -4.51207e-05
0.0085899 0.000112343 0.00138818
0.00902761 0.00840057 0.00350301
0.0122997 0.000158963 0.00567535
0.0089189 0.00178873 0.00625112
0.00201305 0.00258963 0.00997425
0.0102336 0.0073101 -0.000124593
0.00742476 0.00778386 0.00207541
0.00854289 0.00620202 0.00149616
0 0.00686719 0.00578184
0.0143677 0.0015968 0.00238973
0.00254455 0.00364308 0.00637535
0.0143708 0.00865833 0.0024468
0.012092 0.00634085 0.00398065
0.00859509 0.0101063 0.0013864
0.0100171 0.000130085 0.00679799
0.0143651 0.001625 0.00563363
0.0120698 0.00372742 0.00590533
0.00216006 2.72705e-05 0.00578787
0 0.0013659 0.00748679
0.00196048 2.48402e-05 0.00750448
0.0143663 0.00704468 0.0055943
0.00836104 0.00859647 -0.000102463
0 0.0075208 0.00859127
0.0019558 0.00751159 0.009975
0.00607607 0.00828218 0.00355009
0.0123536 0.0101505 0.0073494
0.0143713 0.00880132 0.0073338
0.0082945 0.00169427 0.0098891
0.0104331 0.00432042 0.00985977
0 0.0057735 0.00666667
0.00196108 0.0100251 0.00750353
0 0.00863025 0.00752641
0.0123478 0.000161106 0.00235475
0.0143675 0.00713213 0.00245263
0.0121622 0.00649419 0.00201323
0.0122342 0.0059769 0.00983626
0.0107649 0.00151362 0.00985613
0.0123484 0.00016072 0.00735143
0.0143674 0.00155545 0.00729587
0 0.00143551 0.00581971
0.00858692 0.000111766 0.0083938
0.00605016 7.90694e-05 0.00332362
0.011408 0.00485315 0.00189442
0.0143659 0.00448113 0.0023643
0.00607005 0.0100751 0.00658769
0.00406559 0.0100503 0.00277895
0.00188052 2.39812e-05 0.00239424
0 0.00727418 0.00419576
0.0143658 0.0059531 0.00647699
0.0100253 0.0101234 0.00295518
0.0107926 0.00876907 0.00985473
0 0.00574334 0.00336387
0 0.0043297 0.00416652
0.00987206 0.00590791 0.00986746
0.0143648 0.00320754 0.00672685
0.00606606 7.91759e-05 0.00658943
0.00355279 0.0100441 0.00856505
0.0107642 0.00150698 -0.000129518
0.0082953 0.00677062 0.00988849
0.014371 0.00769583 0.00839505
0.0123782 0.00770564 0.00983367
0.00994128 0.00315124 -0.000119769
0.00482946 0.00580603 -5.89896e-05
0.010826 0.00876493 -0.000131328
0.0108083 0.0101328 0.00125366
0.00831178 0.0069722 -0.000101414
0.0100264 0.00649757 0.00290777
0.0108032 0.000141845 0.00125489
0.00413719 0.00505112 0.00994491
0.00621706 0.0059119 0.00991652
0.00621587 0.00424519 0.00991671
0.0108071 0.0101314 0.00847285
0.00355032 4.60296e-05 0.00856639
0.0143657 0.00592384 0.00318614
0 0.00302218 0.00691532
0.014367 0.00420158 0.00830643
0.0122266 0.004175 -0.000146451
0.0143685 0.00289574 0.00137202
0 0.00244495 0.00857025
0.00350678 0.00861426 0.00995334
0.0108015 0.000141114 0.00847444
0.0122026 0.00278018 0.00983664
0.0127247 0.00435558 0.00982895
0.00814836 0.0101004 0.00572812
0.00745081 0.00767732 0.00493707
0.00810904 0.0100998 0.00411127
0.0100223 0.0101233 0.00679649
0.00433618 0.00697048 0.0099421
0.00598471 0.00440754 -7.25883e-05
0.00406775 5.28701e-05 0.00435328
0.00452387 5.90935e-05 0.00576849
0.0143695 0.00437935 0.000956563
0.00522383 0.00840375 0.00152218
0.0143645 0.00451227 0.00398606
0.00958481 0.00589483 -0.000116582
0.012353 0.0101514 0.00235324
0 0.00848692 0.00262374
0.00193542 0.0100251 0.00403465
0 0.00885053 0.00419359
0.00602557 0.00892628 -7.41584e-05
0.00604 0.0100747 0.00161128
0.00718194 0.00488398 0.00228921
0.0103799 0.00465461 -0.000125242
0.00810367 0.000105605 0.0041138
0.00814345 0.000106163 0.00573015
0.00188008 0.0100242 0.00239329
0.0123242 0.00260551 -0.000147923
0.0143649 0.00470429 0.00702908
0.0102284 0.010126 0.00486904
0.0082502 0.00346922 0.00988927
0.00352643 4.63903e-05 0.00131217
0.0143684 0.00263227 0.00837425
0.00343468 0.00483531 0.00495594
0.00838396 0.00443822 -0.000101332
0.0119621 0.00595846 -0.000143368
0.00787296 0.010097 0.0071177
0.0143638 0.00451259 0.00564751
0.0077648 0.0100958 0.00267716
0.0102232 0.000132669 0.0048707
0.00406931 0.0100505 0.00435123
0 0.00452174 0.00721958
0.0064926 0.00730142 0.00991267
0.00786801 0.000102551 0.0071189
0.00517215 0.00514059 0.00353011
0.00610603 0.0100752 0.00492911
0.00610198 7.9906e-05 0.00493171
0.00526863 0.00528418 0.00610741
0 0.005744 0.00499998
0 0.00433013 0.00583333
0.00718505 0.00583622 -8.73345e-05
0.0071613 0.0064305 0.00346281
0.00775972 0.000101267 0.00267906
0.0143649 0.00592317 0.00481622
0.00529756 0.00647603 0.00477608
0.00825169 0.00510404 0.00988914
0.0143691 0.0059539 0.00141659
0 0.00666667 0
0.0123574 0.00767405 -0.000148308
0.00478567 6.34182e-05 -5.82584e-05
0 0.01 0.00666667
0.00718464 0.0100878 0.00990358
0 0.00288419 0.00499914
0.0143712 0.00766557 0.00120412
0.0143743 0.00684405 -0.000167822
0 0.005 0.01
0.00718268 0.00297782 -8.68328e-05
0 0.005 0
0.0143716 0.000194186 0.00315653
0.0143777 0.0101664 0.00647606
0.00602778 0.00735094 -7.37789e-05
0.0143644 0.00307036 0.00481613
0.007184 9.51621e-05 -8.73175e-05
0 0 0.00666667
0.00545252 0.00368678 0.00515683
0.00718025 9.33886e-05 0.00990482
0.0143712 0.00019363 0.0064783
0 0 0.005
0.0126309 0.0101536 0.00106687
0.0143755 0.00895113 0.00105041
0.0143706 0.000193587 0.00481686
0.0143736 0.00518221 -0.000166646
0.00174768 0.00124262 -2.21705e-05
0 0.00122008 0.00122008
0 0.00333333 0.01
0 0.00666667 0.01
0.0126305 0.00893446 -0.000151601
0.0143777 0.0101659 0.00315402
0.00605369 0.0100746 0.00332144
0.0143758 0.00684354 0.00979878
0 0.00333333 0
0 0.00122008 0.00877992
0.0017464 2.21681e-05 0.00875819
0.00174622 0.00124214 0.00997765
0.0126292 0.0101523 0.0086105
0.00174698 0.00880209 0.00997752
0 0.00877992 0.00877992
0.0143749 0.00894984 0.00858336
0.00958901 0.0101177 -0.000118065
0.0143716 0.00141206 0.00105051
0.00174729 0.0100221 0.00875747
0.012629 0.00893248 0.0098293
0.0143748 0.00518083 0.00979939
0 0 0.00333333
0.00958324 0.000126566 -0.000116118
0.0126251 0.000166612 0.00106731
0.00173551 2.23365e-05 0.00118968
0 0.00877992 0.00122008
0.00174667 0.00880266 -2.24384e-05
0.00173486 0.0100221 0.00118882
0.014371 0.00141057 0.00858419
0.0126251 0.00138512 0.00983047
0.00957944 0.000124894 0.00987249
0.0126267 0.00138694 -0.000151079
0.0126239 0.000165442 0.00861222
0.0143739 0.00351969 -0.000166329
0.00478543 0.0100586 0.00993581
0.00352712 0.0100438 0.00131104
0.00958526 0.0101166 0.00987133
0.0143739 0.00351764 0.00979925
0 0.01 0.005
0.00376494 0.00853498 -4.66159e-05
0.0143768 0.0101661 0.00481641
0 0.01 0.00333333
0 0.00166667 0
0.0143744 0.000194073 0.00149541
0 0.00166667 0.01
0 0.00833333 0
0.0143782 0.00850688 -0.000168415
0.0143737 0.000193286 0.0081401
0.0143807 0.0101679 0.00149518
0.01438 0.0101666 0.00813827
0.00238888 0.0100293 0.00996876
0 0.01 0.00833333
0.0119911 0.0101457 -0.000145305
0.0119851 0.000159235 -0.000144403
0.0119831 0.000157355 0.00984002
0.0119886 0.010144 0.00983864
0 0 0.00833333
0.0143788 0.00850396 0.00979971
0.00238925 3.16834e-05 -2.9897e-05
0 0 0.00166667
0.00478749 0.0100594 -5.93038e-05
0.0143753 0.00185663 0.00980051
0.0143756 0.00185867 -0.000167145
0.00238696 3.07212e-05 0.00996943
0.00238875 0.01003 -3.04382e-05
0 0.01 0.00166667
0.014384 0.0101684 0.00980107
0 0 0.01
0.0143847 0.0101688 -0.00016972
0.0143782 0.000192104 0.00980313
0 0.01 0.01
0.0143791 0.000193857 -0.000168743
0 0.01 0
0 0 0
0.00718799 0.0100886 -8.89643e-05
0.00478243 6.20577e-05 0.00993665
0 0.00833333 0.01

CELLS 343 686
1 0
1 1
1 2
1 3
1 4
1 5
1 6
1 7
1 8
1 9
1 10
1 11
1 12
1 13
1 14
1 15
1 16
1 17
1 18
1 19
1 20
1 21
1 22
1 23
1 24
1 25
1 26
1 27
1 28
1 29
1 30
1 31
1 32
1 33
1 34
1 35
1 36
1 37
1 38
1 39
1 40
1 41
1 42
1 43
1 44
1 45
1 46
1 47
1 48
1 49
1 50
1 51
1 52
1 53
1 54
1 55
1 56
1 57
1 58
1 59
1 60
1 61
1 62
1 63
1 64
1 65
1 66
1 67
1 68
1 69
1 70
1 71
1 72
1 73
1 74
1 75
1 76
1 77
1 78
1 79
1 80
1 81
1 82
1 83
1 84
1 85
1 86
1 87
1 88
1 89
1 90
1 91
1 92
1 93
1 94
1 95
1 96
1 97
1 98
1 99
1 100
1 101
1 102
1 103
1 104
1 105
1 106
1 107
1 108
1 109
1 110
1 111
1 112
1 113
1 114
1 115
1 116
1 117
1 118
1 119
1 120
1 121
1 122
1 123
1 124
1 125
1 126
1 127
1 128
1 129
1 130
1 131
1 132
1 133
1 134
1 135
1 136
1 137
1 138
1 139
1 140
1 141
1 142
1 143
1 144
1 145
1 146
1 147
1 148
1 149
1 150
1 151
1 152
1 153
1 154
1 155
1 156
1 157
1 158
1 159
1 160
1 161
1 162
1 163
1 164
1 165
1 166
1 167
1 168
1 169
1 170
1 171
1 172
1 173
1 174
1 175
1 176
1 177
1 178
1 179
1 180
1 181
1 182
1 183
1 184
1 185
1 186
1 187
1 188
1 189
1 190
1 191
1 192
1 193
1 194
1 195
1 196
1 197
1 198
1 199
1 200
1 201
1 202
1 203
1 204
1 205
1 206
1 207
1 208
1 209
1 210
1 211
1 212
1 213
1 214
1 215
1 216
1 217
1 218
1 219
1 220
1 221
1 222
1 223
1 224
1 225
1 226
1 227
1 228
1 229
1 230
1 231
1 232
1 233
1 234
1 235
1 236
1 237
1 238
1 239
1 240
1 241
1 242
1 243
1 244
1 245
1 246
1 247
1 248
1 249
1 250
1 251
1 252
1 253
1 254
1 255
1 256
1 257
1 258
1 259
1 260
1 261
1 262
1 263
1 264
1 265
1 266
1 267
1 268
1 269
1 270
1 271
1 272
1 273
1 274
1 275
1 276
1 277
1 278
1 279
1 280
1 281
1 282
1 283
1 284
1 285
1 286
1 287
1 288
1 289
1 290
1 291
1 292
1 293
1 294
1 295
1 296
1 297
1 298
1 299
1 300
1 301
1 302
1 303
1 304
1 305
1 306
1 307
1 308
1 309
1 310
1 311
1 312
1 313
1 314
1 315
1 316
1 317
1 318
1 319
1 320
1 321
1 322
1 323
1 324
1 325
1 326
1 327
1 328
1 329
1 330
1 331
1 332
1 333
1 334
1 335
1 336
1 337
1 338
1 339
1 340
1 341
1 342

CELL_TYPES 343
1
1
1
1
1
1
1
1
1
1
1
1
1
1
1
1
1
1
1
1
1
1
1
1
1
1
1
1
1
1
1
1
1
1
1
1
1
1
1
1
1
1
1
1
1
1
1
1
1
1
1
1
1
1
1
1
1
1
1
1
1
1
1
1
1
1
1
1
1
1
1
1
1
1
1
1
1
1
1
1
1
1
1
1
1
1
1
1
1
1
1
1
1
1
1
1
1
1
1
1
1
1
1
1
1
1
1
1
1
1
1
1
1
1
1
1
1
1
1
1
1
1
1
1
1
1
1
1
1
1
1
1
1
1
1
1
1
1
1
1
1
1
1
1
1
1
1
1
1
1
1
1
1
1
1
1
1
1
1
1
1
1
1
1
1
1
1
1
1
1
1
1
1
1
1
1
1
1
1
1
1
1
1
1
1
1
1
1
1
1
1
1
1
1
1
1
1
1
1
1
1
1
1
1
1
1
1
1
1
1
1
1
1
1
1
1
1
1
1
1
1
1
1
1
1
1
1
1
1
1
1
1
1
1
1
1
1
1
1
1
1
1
1
1
1
1
1
1
1
1
1
1
1
1
1
1
1
1
1
1
1
1
1
1
1
1
1
1
1
1
1
1
1
1
1
1
1
1
1
1
1
1
1
1
1
1
1
1
1
1
1
1
1
1
1
1
1
1
1
1
1
1
1
1
1
1
1
1
1
1
1
1
1
1
1
1
1
1
1
1
1
1
1
1
1
1
1
1
1
1
1
1
1
1
1
1
1
1
1
1
1
1
1

POINT_DATA 343
FIELD FieldData 8

NodeID_(#) 1 343 int
0
1
2
3
4
5
6
7
8
9
10
11
12
13
14
15
16
17
18
19
20
21
22
23
24
25
26
27
28
29
30
31
32
33
34
35
36
37
38
39
40
41
42
43
44
45
46
47
48
49
50
51
52
53
54
55
56
57
58
59
60
61
62
63
64
65
66
67
68
69
70
71
72
73
74
75
76
77
78
79
80
81
82
83
84
85
86
87
88
89
90
91
92
93
94
95
96
97
98
99
100
101
102
103
104
105
106
107
108
109
110
111
112
113
114
115
116
117
118
119
120
121
122
123
124
125
126
127
128
129
130
131
132
133
134
135
136
137
138
139
140
141
142
143
144
145
146
147
148
149
150
151
152
153
154
155
156
157
158
159
160
161
162
163
164
165
166
167
168
169
170
171
172
173
174
175
176
177
178
179
180
181
182
183
184
185
186
187
188
189
190
191
192
193
194
195
196
197
198
199
200
201
202
203
204
205
206
207
208
209
210
211
212
213
214
215
216
217
218
219
220
221
222
223
224
225
226
227
228
229
230
231
232
233
234
235
236
237
238
239
240
241
242
243
244
245
246
247
248
249
250
251
252
253
254
255
256
257
258
259
260
261
262
263
264
265
266
267
268
269
270
271
272
273
274
275
276
277
278
279
280
281
282
283
284
285
286
287
288
289
290
291
292
293
294
295
296
297
298
299
300
301
302
303
304
305
306
307
308
309
310
311
312
313
314
315
316
317
318
319
320
321
322
323
324
325
326
327
328
329
330
331
332
333
334
335
336
337
338
339
340
341
342

Component_(#) 1 343 int
0
0
0
0
0
0
0
0
0
0
0
0
0
0
0
0
0
0
0
0
0
0
0
0
0
0
0
0
0
0
0
0
0
0
0
0
0
0
0
0
0
0
0
0
0
0
0
0
0
0
0
0
0
0
0
0
0
0
0
0
0
0
0
0
0
0
0
0
0
0
0
0
0
0
0
0
0
0
0
0
0
0
0
0
0
0
0
0
0
0
0
0
0
0
0
0
0
0
0
0
0
0
0
0
0
0
0
0
0
0
0
0
0
0
0
0
0
0
0
0
0
0
0
0
0
0
0
0
0
0
0
0
0
0
0
0
0
0
0
0
0
0
0
0
0
0
0
0
0
0
0
0
0
0
0
0
0
0
0
0
0
0
0
0
0
0
0
0
0
0
0
0
0
0
0
0
0
0
0
0
0
0
0
0
0
0
0
0
0
0
0
0
0
0
0
0
0
0
0
0
0
0
0
0
0
0
0
0
0
0
0
0
0
0
0
0
0
0
0
0
0
0
0
0
0
0
0
0
0
0
0
0
0
0
0
0
0
0
0
0
0
0
0
0
0
0
0
0
0
0
0
0
0
0
0
0
0
0
0
0
0
0
0
0
0
0
0
0
0
0
0
0
0
0
0
0
0
0
0
0
0
0
0
0
0
0
0
0
0
0
0
0
0
0
0
0
0
0
0
0
0
0
0
0
0
0
0
0
0
0
0
0
0
0
0
0
0
0
0
0
0
0
0
0
0
0
0
0
0
0
0
0
0
0
0
0
0
0
0
0
0
0
0

NodalMass_(kg) 1 343 double
3.15563e-06
1.41304e-05
2.20912e-06
1.71484e-05
8.42e-06
9.09306e-06
1.01179e-05
7.52198e-06
6.81096e-06
5.58223e-06
3.10888e-06
1.07575e-05
4.87011e-06
1.64955e-05
3.0246e-06
8.05984e-06
6.703e-06
1.0877e-05
4.18978e-06
8.16106e-06
6.14143e-06
1.17902e-05
2.23114e-06
4.25176e-06
1.09915e-05
7.41467e-06
4.21871e-06
3.92484e-06
3.08766e-06
1.31268e-05
7.72627e-06
1.65404e-05
1.19037e-05
7.97564e-06
3.81683e-06
1.11001e-05
3.81317e-06
1.39137e-05
6.37414e-06
8.00975e-06
7.6712e-06
1.21135e-05
1.6399e-05
2.78633e-06
8.93599e-06
2.58087e-06
7.57362e-06
4.23241e-06
1.31286e-05
3.80168e-06
2.7746e-06
7.16776e-06
1.21307e-05
5.11765e-06
8.19728e-06
4.58094e-06
2.79503e-06
3.26126e-06
4.12443e-06
2.11915e-06
3.35177e-06
3.61669e-06
1.56838e-05
7.33679e-06
8.24695e-06
5.00369e-06
2.82625e-06
7.20276e-06
3.26815e-06
4.18751e-06
2.02785e-06
2.42152e-06
3.11835e-06
5.97459e-06
5.87101e-06
4.09374e-06
5.45463e-06
2.28825e-06
4.49759e-06
4.38192e-06
4.50892e-06
4.39234e-06
4.27273e-06
5.32031e-06
1.53201e-06
2.38869e-06
2.02885e-06
4.38798e-06
3.17972e-06
3.14298e-06
4.61567e-06
5.87645e-06
8.18088e-06
2.48341e-06
1.53815e-05
3.49683e-06
7.35227e-06
2.01314e-06
2.0408e-06
7.98183e-06
4.41293e-06
7.1389e-06
1.20123e-06
5.03343e-06
1.61257e-06
4.12601e-06
8.73748e-06
4.37849e-06
7.97173e-06
2.13557e-06
3.38137e-06
9.48623e-06
7.40262e-06
1.80226e-06
2.10222e-06
7.98889e-06
1.87983e-06
7.44814e-06
4.19782e-06
2.37156e-06
4.31705e-06
6.06441e-06
4.30905e-06
2.16843e-06
1.8986e-06
1.81294e-06
3.89762e-06
2.44299e-06
1.65628e-06
8.01374e-06
1.64513e-06
2.3931e-06
3.01363e-06
2.99431e-06
1.36541e-06
1.87293e-06
2.09622e-06
1.94762e-06
1.87618e-06
6.37913e-06
4.58628e-06
2.02767e-06
1.61999e-06
2.41284e-06
3.8865e-06
4.44973e-06
2.29839e-06
1.17349e-05
3.11811e-06
1.354e-06
3.45063e-06
1.81846e-06
2.9382e-06
1.37381e-06
2.41464e-06
2.10451e-06
2.63927e-06
2.14166e-06
1.7943e-06
3.19976e-06
1.36989e-06
2.43489e-06
2.08158e-06
1.3601e-06
2.17203e-06
1.89924e-06
3.16996e-06
2.6119e-06
2.37677e-06
1.60225e-06
1.90684e-06
5.49206e-06
1.87878e-06
3.14313e-06
2.97301e-06
1.18454e-06
1.89263e-06
2.04166e-06
2.73572e-06
2.42405e-06
3.23083e-06
3.19752e-06
3.2142e-06
1.94492e-06
1.61196e-06
1.86876e-06
3.22435e-06
2.1114e-06
2.96917e-06
6.15288e-06
2.3097e-06
2.39729e-06
2.38029e-06
2.64508e-06
1.66557e-06
1.82377e-06
2.06583e-06
5.73271e-06
2.08467e-06
2.18324e-06
2.43522e-06
3.1188e-06
3.17316e-06
2.05447e-06
1.9592e-06
3.05718e-06
6.44327e-06
2.08796e-06
2.72615e-06
2.15709e-06
1.86812e-06
2.0028e-06
2.10999e-06
2.88994e-06
2.3222e-06
2.3979e-06
1.97629e-06
6.4127e-06
2.16225e-06
3.29198e-06
2.10223e-06
2.66566e-06
1.94415e-06
2.91865e-06
2.58116e-06
2.11703e-06
2.09534e-06
1.91719e-06
7.06046e-06
2.25203e-06
2.06378e-06
6.28159e-06
2.12147e-06
2.90924e-06
2.12921e-06
6.4487e-06
1.41701e-06
2.0682e-06
6.58062e-06
2.52584e-06
2.39732e-06
7.42191e-07
2.22368e-06
7.06751e-07
7.00657e-07
8.93749e-07
2.53536e-06
2.26535e-06
1.33607e-06
7.84725e-07
2.32303e-06
6.06694e-07
6.68276e-07
6.84307e-07
2.51242e-06
2.31629e-06
7.8367e-07
6.80839e-07
6.22692e-06
6.7471e-07
6.65305e-07
7.01158e-07
1.8232e-06
1.90695e-06
6.86722e-07
7.04792e-07
1.86445e-06
2.28572e-06
6.8045e-07
7.16005e-07
1.82373e-06
6.01079e-07
2.02791e-06
7.4579e-07
5.74423e-07
1.80052e-06
1.454e-06
2.2702e-06
1.80636e-06
2.15356e-06
1.79089e-06
1.79456e-06
6.8231e-07
2.24737e-06
1.45239e-06
1.79556e-06
6.97875e-07
6.24265e-07
6.62717e-07
1.44627e-06
1.40138e-06
2.15258e-06
1.82851e-06
1.3994e-06
1.43932e-06
2.19226e-06
6.97732e-07
1.77726e-06
1.79162e-06
6.54258e-07
7.3397e-07
2.34895e-06
7.10392e-07
6.56982e-07
6.26314e-07
2.18926e-06
6.12493e-07
6.03901e-07
5.92831e-07
5.12031e-07
5.11667e-07
4.9467e-07
4.97016e-07
4.96269e-07
5.33079e-07
4.94191e-07
4.97855e-07
4.86862e-07
4.90626e-07
4.94649e-07
4.94954e-07
4.91922e-07
4.89615e-07
4.96354e-07
4.95189e-07
4.82188e-07
1.10854e-06
5.3299e-07
5.44763e-07
5.36655e-07
5.15417e-07
5.01772e-07
5.53774e-07
5.53774e-07
5.53774e-07
5.53774e-07
5.53774e-07
5.53774e-07
5.50785e-07
5.50785e-07
7.45291e-07
7.11668e-07
4.9897e-07

NodalForce_(N) 3 343 double
2.57752e-07 -2.5227e-08 1.71048e-08
1.76816e-06 -3.83143e-07 5.6748e-07
0.00016314 -2.36656e-05 0.000575879
8.71248e-07 -4.87985e-07 5.27081e-07
-1.15911e-06 -2.19878e-06 2.80755e-06
-1.74525e-06 -2.08169e-06 3.29468e-06
5.07093e-07 -4.97458e-06 7.98621e-06
1.56599e-06 -2.43167e-06 3.84571e-06
-2.22477e-06 -2.93604e-06 4.50706e-06
2.02152e-07 -1.10461e-06 1.73529e-06
-1.81174e-06 -6.84132e-07 9.77406e-07
-5.04217e-06 -3.16857e-06 4.59976e-06
-2.48239e-06 -1.14092e-06 1.40056e-06
-2.15717e-06 -4.63827e-07 6.99187e-07
-1.56909e-06 -5.79061e-07 1.00739e-06
-6.47406e-07 -3.18765e-06 5.52023e-06
8.40601e-07 -2.24704e-06 3.69633e-06
-4.72863e-07 -3.97458e-07 5.95472e-07
0.000876414 0.000562256 0.000436732
1.56375e-07 -8.09371e-08 1.47256e-07
9.76345e-07 -2.65867e-06 3.85136e-06
-2.08164e-06 -6.72033e-06 9.6586e-06
0.00181245 -0.000235968 0.000421783
1.11834e-06 -8.99126e-07 1.1171e-06
1.5254e-06 -2.95147e-06 4.1351e-06
1.76931e-06 -1.02721e-06 1.84828e-06
-1.84526e-07 -3.09394e-08 9.09219e-08
1.18238e-07 -8.23394e-07 1.07802e-06
1.11175e-06 -1.17137e-07 2.9779e-07
2.20019e-06 -1.41084e-07 4.83429e-07
2.85692e-06 -8.00411e-07 2.00186e-06
-1.39437e-06 -8.91257e-06 1.52661e-05
-4.4189e-06 -6.42091e-06 1.08307e-05
3.72971e-07 -4.63142e-06 7.66905e-06
2.22957e-06 -3.03936e-06 4.87266e-06
3.4473e-06 -5.32262e-06 8.61046e-06
2.51355e-06 -2.37795e-06 3.73906e-06
1.06763e-05 -7.29667e-06 1.20876e-05
-1.05295e-06 -6.80624e-07 1.03022e-06
-2.63564e-06 -1.32099e-06 2.61955e-06
-1.62214e-06 -1.28298e-06 1.33325e-06
-7.16646e-07 -2.61465e-06 4.71152e-06
-4.02759e-07 -4.70776e-07 6.5656e-07
2.86214e-07 -1.93508e-07 2.6073e-07
1.20807e-06 -1.18645e-06 1.66306e-06
0.000956654 -0.000118623 -0.00033476
4.40562e-07 -1.5385e-07 1.96856e-07
0.000517018 0.000514397 -0.000399264
-8.18385e-07 -3.80906e-07 7.76215e-07
-3.59437e-07 -5.25279e-08 6.62822e-08
-1.09067e-06 -1.22112e-06 2.22253e-06
-1.9841e-06 -2.21322e-06 4.21419e-06
9.40702e-07 -1.58526e-07 4.81191e-07
1.04638e-07 -2.697e-07 5.29285e-07
1.14131e-08 -1.16018e-07 2.17069e-07
-1.33987e-06 -3.68599e-06 6.08873e-06
0.000696848 -0.000261418 -1.40666e-05
5.20341e-07 -5.1623e-08 6.89087e-08
0.00190748 -0.000605725 0.000707087
1.06906e-08 -1.68426e-06 2.7951e-06
-1.10957e-06 -2.41385e-07 5.1713e-07
-3.66098e-07 -3.18272e-06 4.61721e-06
3.69587e-06 -9.60684e-06 1.36512e-05
6.98347e-07 -4.52568e-06 6.92085e-06
-7.1511e-07 -1.27509e-06 1.28292e-06
3.33213e-07 -2.59403e-08 1.03053e-07
-7.46574e-07 -3.00662e-07 2.63558e-07
-2.96115e-06 -2.34387e-06 4.20685e-06
1.4439e-06 -2.57358e-06 4.16504e-06
-1.04272e-06 -2.96296e-06 4.09749e-06
6.20926e-07 -1.94509e-07 3.39046e-07
-9.2471e-07 -2.17471e-07 3.33868e-07
-2.72e-07 -3.22512e-07 2.89519e-07
-1.2089e-06 -1.04879e-06 2.10814e-06
3.01774e-07 -4.56735e-07 6.41526e-07
0.00117412 -0.000355612 -0.000485367
3.98899e-07 -1.10597e-06 1.65838e-06
2.36812e-07 -2.6394e-08 3.91734e-08
-1.28712e-06 -1.40843e-06 2.54063e-06
3.74555e-08 -1.45354e-06 2.57901e-06
3.70978e-08 -7.57454e-07 1.37401e-06
-9.20369e-07 -7.37784e-07 1.27496e-06
1.33286e-06 -3.39743e-06 5.54041e-06
9.50409e-07 -2.94143e-07 5.99637e-07
0.00116145 0.000403872 0.000156674
3.62703e-07 7.29383e-09 1.86534e-08
0.00120403 -5.81273e-05 -0.000334438
0.00208158 -0.000197404 -0.000494551
0.00108781 0.000738963 -0.000573829
8.91292e-07 -1.51573e-07 2.87189e-07
-4.29183e-07 -4.6143e-08 8.72841e-08
-4.58453e-08 -1.23229e-06 2.15583e-06
-1.22275e-06 -6.62003e-07 1.75243e-06
-1.87272e-06 -1.17471e-06 1.86833e-06
-9.60686e-06 -9.46373e-06 1.39709e-05
-3.16326e-07 -1.7733e-06 2.29726e-06
-2.25073e-07 -2.75757e-06 3.56606e-06
3.03878e-07 -1.70043e-06 2.56358e-06
0.00176486 0.000753763 -9.27949e-05
9.56468e-07 -2.82326e-06 4.47377e-06
1.51599e-06 -1.63111e-06 2.22093e-06
2.38001e-06 -2.41257e-06 3.82299e-06
2.10833e-07 -1.21498e-07 1.51916e-07
2.07918e-06 -3.17381e-06 4.99864e-06
2.84199e-07 -1.37049e-07 1.63559e-07
3.09996e-07 -1.62229e-06 2.21324e-06
4.17695e-06 -2.95848e-06 4.63796e-06
-2.14199e-06 -3.09301e-06 4.31364e-06
-2.98829e-06 -3.13917e-06 4.19415e-06
-2.42255e-07 -1.19555e-08 3.79222e-08
3.01418e-06 -1.40149e-06 2.49324e-06
4.99556e-06 -2.08345e-06 3.67637e-06
3.98518e-06 -2.0283e-06 3.861e-06
0.000814758 0.000391892 -0.00034061
2.69124e-07 -1.85089e-06 2.66879e-06
-3.32671e-07 -1.46024e-07 2.74568e-07
1.46418e-06 -1.48866e-06 2.40945e-06
2.37557e-06 -4.34235e-06 7.01076e-06
3.52996e-06 -1.39946e-06 2.25882e-06
-1.43477e-06 -1.23273e-06 1.58942e-06
-1.47623e-06 -3.80397e-06 5.56156e-06
-1.23832e-06 -3.72832e-06 5.83792e-06
-3.4446e-07 -7.17461e-08 9.16271e-08
0.00148421 0.000231284 0.000345875
-1.91933e-07 -4.36252e-08 1.2503e-08
3.10154e-07 -1.43004e-06 2.34639e-06
3.47168e-06 -1.11703e-06 2.041e-06
0.00166391 0.000492454 -0.000695602
-1.23804e-07 -3.14582e-08 4.08594e-08
2.59131e-06 -1.18391e-06 1.65887e-06
2.81081e-07 -1.05155e-06 1.7014e-06
1.81264e-07 -1.90004e-06 3.17266e-06
-2.31171e-06 -1.08464e-06 1.65775e-06
-1.94429e-06 -1.39221e-06 2.42977e-06
0.000958847 -0.000151618 0.000397952
4.384e-08 -3.04158e-09 2.7452e-08
0.00148681 -0.000412997 0.000345752
-2.14457e-08 -1.39478e-06 1.91009e-06
1.19802e-06 -1.46232e-06 2.39052e-06
3.94104e-06 -3.72152e-06 6.08934e-06
-2.49916e-06 -2.79589e-06 4.7903e-06
-1.79495e-06 -1.15595e-06 1.72197e-06
-1.18163e-06 -1.17465e-06 1.62439e-06
-1.42207e-06 -2.14686e-06 3.14896e-06
0.00112428 0.00052722 -0.000709161
-3.26613e-06 -1.81347e-06 2.43055e-06
-2.96507e-07 -5.16065e-07 5.17506e-07
5.50302e-06 -6.33078e-06 9.94954e-06
1.2482e-06 -2.56017e-06 3.93879e-06
2.27277e-07 -2.39106e-07 3.26403e-07
1.06771e-06 -2.4957e-07 3.20902e-07
-1.5321e-08 -9.62981e-09 1.78244e-08
0.00241378 0.000804657 -5.96195e-05
-8.54549e-08 -1.10115e-06 1.78962e-06
1.7512e-06 -1.06796e-06 1.60691e-06
-5.88321e-07 -1.06858e-06 1.83805e-06
0.0015138 0.000205834 -0.000682099
0.000928646 0.000811843 0.00173371
-9.02509e-07 -7.17451e-07 1.34824e-06
-1.14331e-06 -2.68964e-06 4.16992e-06
-5.35691e-07 -3.21323e-07 3.13066e-07
4.80885e-09 -1.34005e-07 2.45076e-07
8.50608e-07 -1.17215e-06 1.65181e-06
-5.35234e-07 -3.76272e-07 7.75981e-07
-3.81788e-07 -1.73081e-06 2.89327e-06
-7.44475e-07 -1.1872e-06 2.03349e-06
1.64685e-06 -1.4156e-06 2.20745e-06
1.10765e-06 -1.66842e-07 4.62318e-07
2.4857e-06 -1.12636e-06 1.95188e-06
1.5678e-06 -8.04653e-07 1.29555e-06
1.44691e-06 -5.10469e-07 9.9062e-07
2.43833e-06 -2.17555e-06 3.62842e-06
2.34669e-07 -1.09657e-06 1.48848e-06
-8.60112e-07 -2.16367e-07 5.16425e-07
-1.13774e-06 -4.21549e-07 1.05009e-06
-5.31914e-07 -1.88675e-07 4.20755e-07
2.09377e-09 -9.68297e-07 1.63088e-06
-6.21946e-07 -2.06797e-07 1.68971e-07
1.14539e-06 -2.19302e-06 3.46722e-06
0.00177538 -0.000147789 0.000231507
-1.58467e-06 -2.65963e-06 4.27739e-06
2.23633e-06 -2.01051e-06 3.14762e-06
1.27105e-06 -2.74051e-06 4.04607e-06
0.0013834 -0.000152395 -0.000363661
-2.36455e-07 -1.11266e-07 2.00801e-07
-1.56836e-06 -1.12522e-06 1.53186e-06
-2.70223e-06 -2.13071e-06 3.32692e-06
-1.47744e-06 -1.42311e-06 2.33436e-06
8.54726e-07 -9.15349e-07 1.28576e-06
1.23796e-06 -1.37211e-06 2.10798e-06
1.11581e-06 -7.04818e-07 9.61977e-07
5.03256e-07 -1.06334e-06 1.63531e-06
-5.47712e-07 -1.10047e-07 4.35306e-07
1.1772e-06 -3.62984e-07 7.61353e-07
-2.41358e-07 -1.93453e-07 1.48953e-07
-4.26351e-07 -2.44075e-07 2.0423e-07
1.21959e-06 -1.69862e-06 2.61076e-06
2.43922e-06 -6.38045e-07 1.22667e-06
3.50642e-07 -1.70442e-06 2.66766e-06
1.61983e-06 -7.92547e-07 1.43831e-06
2.18867e-06 -1.52726e-06 2.4135e-06
0.00143458 -0.000221457 -4.6505e-05
2.55981e-07 -3.11627e-08 5.31978e-08
0.0013282 -0.000656712 -4.68798e-05
1.33677e-06 -3.14673e-07 5.87799e-07
1.82804e-06 -5.58231e-07 8.35474e-07
1.88381e-06 -1.22547e-06 2.26837e-06
1.39196e-06 -9.5085e-07 1.56585e-06
-5.79507e-07 -1.0007e-06 1.12774e-06
-8.8653e-07 -8.01258e-07 9.0271e-07
2.22048e-07 -2.09687e-08 1.0911e-08
1.11771e-06 -1.33681e-06 1.98688e-06
-5.48805e-07 -1.7197e-06 2.76369e-06
1.38044e-06 -1.32398e-06 2.0033e-06
-1.45323e-06 -7.27195e-07 1.28445e-06
1.65088e-08 -1.70171e-07 1.90963e-07
-1.2755e-06 -1.71167e-06 2.61193e-06
1.50809e-07 -2.29076e-07 4.31695e-07
1.20318e-06 -6.46438e-07 1.15315e-06
2.81311e-06 -1.85452e-06 3.15928e-06
2.97806e-07 -5.99996e-07 9.30605e-07
-2.06201e-07 -2.1781e-06 3.45269e-06
1.22593e-06 -5.44921e-07 7.79528e-07
-1.01567e-06 -1.53287e-06 2.00673e-06
6.08405e-07 -1.84769e-07 2.15554e-07
0.00169066 0.00032009 0.000673957
-6.43422e-07 -3.47406e-07 7.79112e-07
-1.04929e-06 -6.73735e-07 8.05476e-07
8.40303e-07 -6.19957e-07 9.97258e-07
7.18255e-07 -4.10187e-07 4.99062e-07
-5.37638e-07 -4.83992e-07 4.28825e-07
-1.85277e-07 -5.64421e-07 1.01931e-06
0.00195518 -0.00139969 6.5736e-05
0.00200661 0.000738886 -0.0011534
1.27662e-06 -3.66236e-07 8.72708e-07
1.75806e-06 -1.2199e-06 2.04441e-06
-9.11756e-08 -4.79854e-07 5.78273e-07
3.68619e-07 -1.65578e-06 2.66042e-06
6.72634e-07 -5.70654e-07 9.5899e-07
-1.2792e-06 -6.92855e-07 1.42749e-06
1.61768e-06 -1.91302e-06 3.03237e-06
0.000745756 0.00074534 -5.10149e-05
2.2744e-06 -1.33039e-06 2.25445e-06
1.0366e-07 -1.31483e-07 1.48082e-07
0.000856757 3.54919e-05 -0.000988673
-1.54145e-07 -2.38347e-07 4.16693e-07
0.00195389 -0.00119972 0.000160231
1.96069e-06 -1.75603e-06 2.87812e-06
1.30676e-06 -1.0512e-06 1.72335e-06
0.000816514 -0.00104669 7.92051e-05
9.31995e-07 -5.53719e-07 9.09865e-07
0.000720341 0.00118444 -8.646e-05
-7.73286e-08 -6.05995e-07 8.51456e-07
2.21148e-07 -5.57946e-07 8.95791e-07
1.49208e-06 -3.1627e-07 7.4797e-07
-2.12945e-07 -1.94591e-06 2.98172e-06
1.71248e-07 -2.55653e-07 3.21472e-07
0.000701576 -0.000154684 0.000803629
-2.86323e-07 -6.9545e-07 9.88597e-07
-5.12032e-07 -2.07808e-07 2.95373e-07
-3.97156e-07 -6.01804e-07 8.5747e-07
0.000464385 -0.000386946 0.00102474
1.97477e-06 -1.17582e-06 1.90578e-06
1.91675e-06 -1.5042e-06 2.43702e-06
-2.45239e-07 -6.19486e-07 8.81446e-07
5.76711e-07 -5.64658e-07 9.05398e-07
1.10166e-07 -4.56376e-08 2.08861e-08
0.00101747 0.000457815 0.000117176
0.000720974 -0.00101423 0.000129185
0.000777726 -0.00097378 4.04507e-05
2.07651e-06 -1.13885e-06 1.91801e-06
4.87067e-07 -4.83122e-07 7.69602e-07
9.13262e-07 -3.69701e-07 4.28847e-07
-3.39831e-07 -5.96699e-07 1.01195e-06
0.000720185 0.000526053 9.50583e-05
0.000421858 0.000364773 -0.000531315
-1.59312e-07 -3.96542e-08 2.52381e-08
-2.4056e-07 -3.22664e-08 3.49162e-08
-7.21435e-09 -1.21169e-06 2.01023e-06
-1.0632e-07 -4.07873e-08 4.49882e-08
0.000639006 -0.000266512 -0.000270587
-1.58898e-07 -1.45065e-06 2.41323e-06
7.41858e-07 -2.72828e-07 4.58193e-07
6.77731e-07 -2.00038e-06 2.83674e-06
-1.9417e-09 -1.38864e-08 5.6023e-08
-5.05316e-07 -1.19928e-06 2.00249e-06
-4.27639e-07 -5.74428e-07 9.42456e-07