# vtk DataFile Version 4.2
vtk output
ASCII
DATASET UNSTRUCTURED_GRID

POINTS 343 double
0.00161166 0.00421625 -2.0631e-05
0.00311702 0.00502399 0.00213526
0 0.00419538 0.00112517
0.00277463 0.00199111 0.00190659
0.00744682 0.00251104 0.00493932
0.00744364 0.003932 0.0063038
0.0109751 0.00492864 0.00486292
0.00896133 0.00497443 0.00358107
0.0098462 0.00342663 0.00679017
0.00717992 0.0050904 0.00490993
0.00601994 0.001202 0.00992102
0.007606 0.00218659 0.00780718
0.00603954 7.7656e-05 0.00824075
0.0028904 0.00204014 0.00799672
0.00616762 0.00261721 0.00991874
0.0100053 0.00658399 0.0068206
0.00922664 0.0063091 0.00506819
0.00324942 0.00222767 0.00510484
0 0.00143586 0.00417514
0.00228975 0.00349617 0.00400772
0.00985214 0.00333284 0.00304103
0.0111645 0.00237348 0.00492556
0 0.00270918 0.00154168
0.00599696 0.00151355 -7.17839e-05
0.00721836 0.00228945 0.00210903
0.00570491 0.0036051 0.00153291
0.00193515 2.4386e-05 0.00403555
0.00603622 7.82393e-05 0.0016136
0.00377303 0.00700228 -4.60441e-05
0.00277811 0.0080895 0.00190889
0.00587806 0.00632746 0.0015725
0.0115067 0.0081423 0.00785023
0.0114656 0.0049761 0.00787583
0.0120685 0.00624777 0.00579647
0.0143709 0.00901797 0.00401749
0.010897 0.00778479 0.00482839
0.0123145 0.0101488 0.00401548
0.0114762 0.00812883 0.00187719
0.00508571 0.00310483 0.00689561
0.00638302 0.00374818 0.00824177
0.00560561 0.00167842 0.0058987
0.00718955 0.00776456 0.00758495
0.00285099 0.00804542 0.00795347
0.00405215 0.0100501 0.00707544
0.00562179 0.00847412 0.00588643
0 0.00695361 0.00262895
0.00236174 0.00627045 0.00405759
0 0.0040177 0.00850214
0.00332183 0.00502914 0.00761945
0.00205555 0.00420081 0.00997388
0.0103151 0.00725795 0.00986412
0.00879735 0.00609037 0.00830433
0.00294164 0.00798031 0.00470405
0.00436912 0.00700132 0.00641271
0.00227618 0.0061083 0.00589687
0.0143653 0.005984 0.00812739
0 0.00718191 0.00711644
0.00227368 0.00580395 -2.88711e-05
0 0.00577432 0.00158701
0.0143669 0.00735484 0.00693052
0.00411994 0.00340355 0.00994553
0.0143637 0.0016223 0.00400018
0.0115904 0.00211055 0.00184001
0.0120849 0.00367387 0.00385016
0.00536707 0.0017227 0.00406059
0.00216029 0.0100277 0.00578714
0.00404813 5.23787e-05 0.00707711
0.0087928 0.00429242 0.00826287
0.0143669 0.007449 0.00402031
0.0123053 0.000156214 0.00401696
0.00481283 0.00293599 -5.79737e-05
0.00388312 0.00159102 0.00994888
0.0040635 5.28134e-05 0.00278073
0.00689862 0.00528731 0.00746604
0.00454324 0.00320751 0.00310939
0 0.00849157 0.00581511
0.00700408 0.00376609 0.00369862
0.00220902 0.0027378 -2.79642e-05
0.00832989 0.00842721 0.00988976
0.00859198 0.0101043 0.0083946
0.0060451 0.0100742 0.00823958
0.00576555 0.00857469 0.00992334
0.0143684 0.00866013 0.00563257
0.00452038 0.00689439 0.00309256
0 0.00748929 0.00137438
0.00196837 0.00751499 -2.51552e-05
0 0.00287343 0.00335182
0 0.00580816 0.00831736
0 0.00429792 0.00253898
0.00364336 0.00434516 -4.44423e-05
0.00205509 0.00584565 0.00997378
0.00743906 0.00656924 0.00630594
0.0051743 0.00657786 0.00816717
0.00998535 0.00275371 0.00986874
0.0115301 0.00210474 0.00788732
0.0100185 0.000128282 0.00295952
0.00865143 0.00177556 0.00350612
0.0143644 0.00305604 0.00317843
0 0.00140616 0.00256446
0.00915935 0.00834044 0.00630491
0.00836423 0.0015437 -9.91768e-05
0.00867768 0.00366279 0.00149818
0.00452706 0.0100558 0.00576671
0.0123052 0.0101489 0.00567739
0.00368006 0.00145401 -4.47642e-05
0.00858928 0.000110758 0.00139006
0.00902865 0.00839919 0.00350487
0.0122968 0.000156133 0.00567876
0.00891679 0.00178714 0.00625297
0.00201248 0.0025896 0.00997431
0.0102359 0.00730841 -0.000122057
0.00742607 0.00778295 0.00207677
0.0085441 0.00620089 0.00149798
0 0.00686719 0.00578184
0.0143668 0.00159327 0.00239412
0.00254419 0.003643 0.00637548
0.0143724 0.00865515 0.00245122
0.0120921 0.00633849 0.00398392
0.00859747 0.010105 0.00138826
0.010014 0.000128006 0.00680032
0.0143626 0.00162148 0.00563807
0.012068 0.00372494 0.00590866
0.00215957 2.71972e-05 0.00578795
0 0.0013659 0.00748679
0.00195994 2.47466e-05 0.00750451
0.0143658 0.00704151 0.00559876
0.00836355 0.00859529 -0.000100663
0 0.0075208 0.00859127
0.00195541 0.00751152 0.00997508
0.0060768 0.00828156 0.00355084
0.0123534 0.010148 0.00735296
0.0143706 0.00879815 0.00733835
0.00829111 0.00169282 0.00989097
0.0104301 0.00431855 0.00986254
0 0.0057735 0.00666667
0.00196104 0.0100251 0.00750359
0 0.00863025 0.00752641
0.0123465 0.000158233 0.00235816
0.0143685 0.00712898 0.00245703
0.0121634 0.00649182 0.00201654
0.0122314 0.00597446 0.00983982
0.0107609 0.00151134 0.00985902
0.0123447 0.000157821 0.00735488
0.0143641 0.0015519 0.00730036
0 0.00143551 0.00581971
0.00858355 0.000110138 0.00839568
0.0060491 7.81613e-05 0.00332444
0.0114087 0.00485096 0.00189737
0.014366 0.00447783 0.00236866
0.00607029 0.0100743 0.00658854
0.00406644 0.01005 0.00277929
0.00188031 2.39493e-05 0.00239429
0 0.00727418 0.00419576
0.0143644 0.00594989 0.00648147
0.0100272 0.0101217 0.0029575
0.0107909 0.00876705 0.00985771
0 0.00574334 0.00336387
0 0.0043297 0.00416652
0.00986961 0.0059063 0.00987002
0.0143623 0.00320417 0.00673134
0.0060641 7.82368e-05 0.00659025
0.0035526 0.0100439 0.0085654
0.0107646 0.00150471 -0.000126776
0.00829338 0.0067695 0.00989044
0.0143693 0.00769264 0.00839961
0.012376 0.00770314 0.00983732
0.00994216 0.00314943 -0.000117361
0.00483056 0.00580574 -5.83737e-05
0.0108289 0.00876301 -0.000128508
0.010811 0.0101307 0.00125646
0.00831379 0.00697109 -9.96263e-05
0.0100272 0.00649595 0.00291009
0.0108025 0.000139502 0.00125765
0.00413594 0.00505084 0.00994548
0.0062153 0.00591131 0.00991772
0.00621384 0.00424454 0.00991792
0.0108064 0.0101294 0.00847581
0.00354891 4.5628e-05 0.00856669
0.0143659 0.00592061 0.00319052
0 0.00302218 0.00691532
0.0143641 0.00419828 0.00831097
0.0122279 0.00417246 -0.000143063
0.0143685 0.00289232 0.00137637
0 0.00244495 0.00857025
0.00350606 0.00861398 0.00995376
0.0107975 0.000138713 0.00847726
0.0121986 0.00277754 0.00984017
0.0127212 0.00435288 0.00983273
0.00814889 0.0100992 0.00572964
0.00745101 0.0076764 0.00493829
0.00811023 0.0100986 0.00411274
0.0100224 0.0101215 0.00679886
0.0043351 0.00697028 0.00994272
0.00598575 0.00440697 -7.15894e-05
0.00406684 5.24e-05 0.00435362
0.0045226 5.8554e-05 0.00576891
0.0143702 0.00437603 0.000960922
0.00522497 0.00840328 0.00152293
0.0143639 0.00450898 0.00399048
0.00958661 0.00589333 -0.000114312
0.0123553 0.0101489 0.00235667
0 0.00848692 0.00262374
0.00193558 0.0100251 0.00403471
0 0.00885053 0.00419359
0.00602754 0.00892562 -7.31242e-05
0.00604172 0.010074 0.00161224
0.00718237 0.00488319 0.00229045
0.0103813 0.00465275 -0.000122654
0.00810212 0.000104129 0.00411528
0.00814122 0.000104674 0.00573163
0.00188038 0.0100241 0.00239331
0.012325 0.00260282 -0.000144504
0.0143628 0.00470102 0.00703359
0.0102294 0.0101242 0.00487145
0.00824736 0.00346797 0.00989116
0.00352609 4.60889e-05 0.00131246
0.014365 0.00262881 0.00837878
0.00343449 0.00483515 0.0049562
0.00838516 0.00443699 -9.94869e-05
0.011964 0.00595616 -0.000140071
0.007873 0.0100959 0.00711924
0.0143624 0.00450931 0.00565197
0.00776652 0.0100947 0.00267857
0.010221 0.000130561 0.00487311
0.0040699 0.0100502 0.00435154
0 0.00452174 0.00721958
0.00649112 0.00730075 0.00991393
0.00786535 0.000101144 0.00712037
0.00517216 0.00514021 0.00353063
0.00610679 0.0100745 0.0049299
0.00610046 7.89627e-05 0.00493247
0.00526812 0.0052838 0.006108
0 0.005744 0.00499998
0 0.00433013 0.00583333
0.00718656 0.00583549 -8.59192e-05
0.00716172 0.00642972 0.00346394
0.00775871 9.99015e-05 0.00268051
0.0143643 0.00591994 0.00482066
0.00529753 0.00647565 0.00477661
0.00824932 0.00510293 0.00989106
0.0143702 0.00595068 0.00142095
0 0.00666667 0
0.01236 0.00767162 -0.000144831
0.00478569 6.26788e-05 -5.75247e-05
0 0.01 0.00666667
0.00718365 0.0100867 0.00990516
0 0.00288419 0.00499914
0.014373 0.00766244 0.00120849
0.0143765 0.00684087 -0.000163402
0 0.005 0.01
0.00718342 0.00297684 -8.5475e-05
0 0.005 0
0.0143698 0.000190558 0.00316094
0.0143778 0.0101632 0.00648055
0.00602941 0.00735041 -7.27519e-05
0.0143628 0.00306698 0.00482058
0.00718402 9.38576e-05 -8.58908e-05
0 0 0.00666667
0.0054519 0.00368631 0.00515741
0.00717693 9.21411e-05 0.0099063
0.0143678 0.000190012 0.00648275
0 0 0.005
0.0126338 0.010151 0.00107047
0.0143779 0.00894796 0.00105481
0.014368 0.000189978 0.0048213
0.0143751 0.00517897 -0.00016224
0.00174773 0.00124252 -2.2128e-05
0 0.00122008 0.00122008
0 0.00333333 0.01
0 0.00666667 0.01
0.0126335 0.00893193 -0.000147996
0.0143794 0.0101627 0.00315843
0.0060549 0.0100739 0.0033222
0.0143732 0.00684034 0.00980341
0 0.00333333 0
0 0.00122008 0.00877992
0.00174585 2.20579e-05 0.00875826
0.00174569 0.00124207 0.00997771
0.0126284 0.0101496 0.00861432
0.0017467 0.00880201 0.0099776
0 0.00877992 0.00877992
0.0143736 0.00894663 0.00858796
0.00959215 0.0101161 -0.000115761
0.0143712 0.00140849 0.00105487
0.00174718 0.0100221 0.00875761
0.0126272 0.00892983 0.00983311
0.0143715 0.00517754 0.009804
0 0 0.00333333
0.00958317 0.000124562 -0.000113781
0.0126244 0.0001636 0.00107089
0.00173538 2.22728e-05 0.00118981
0 0.00877992 0.00122008
0.00174708 0.00880265 -2.23925e-05
0.00173524 0.0100221 0.0011889
0.014367 0.00140699 0.00858871
0.0126207 0.00138217 0.00983418
0.00957522 0.00012296 0.00987489
0.012627 0.001384 -0.000147519
0.0126196 0.000162414 0.00861588
0.0143748 0.00351631 -0.000161945
0.00478474 0.010058 0.00993664
0.00352816 0.0100436 0.00131134
0.00958414 0.0101148 0.00987388
0.0143701 0.00351428 0.00980383
0 0.01 0.005
0.00376615 0.0085348 -4.62433e-05
0.0143778 0.0101629 0.00482085
0 0.01 0.00333333
0 0.00166667 0
0.0143734 0.000190423 0.0014998
0 0.00166667 0.01
0 0.00833333 0
0.0143809 0.00850374 -0.000164018
0.0143695 0.000189632 0.0081446
0.0143833 0.0101647 0.00149959
0.0143793 0.0101634 0.00814291
0.00238861 0.0100292 0.009969
0 0.01 0.00833333
0.0119945 0.0101433 -0.00014196
0.011985 0.000156416 -0.000141088
0.0119783 0.000154545 0.00984345
0.0119873 0.0101415 0.00984221
0 0 0.00833333
0.0143768 0.00850073 0.00980436
0.00238914 3.1453e-05 -2.96975e-05
0 0 0.00166667
0.00478934 0.010059 -5.86523e-05
0.0143708 0.00185307 0.00980508
0.014376 0.00185514 -0.000162767
0.00238599 3.05204e-05 0.00996962
0.00238954 0.0100299 -3.02715e-05
0 0.01 0.00166667
0.0143825 0.0101651 0.00980576
0 0 0.01
0.0143881 0.0101656 -0.000165305
0.0143732 0.000188451 0.00980767
0 0.01 0.01
0.0143789 0.000190152 -0.000164344
0 0.01 0
0 0 0
0.0071906 0.0100876 -8.75772e-05
0.0047801 6.14439e-05 0.00993736
0 0.00833333 0.01

CELLS 343 686
1 0
1 1
1 2
1 3
1 4
1 5
1 6
1 7
1 8
1 9
1 10
1 11
1 12
1 13
1 14
1 15
1 16
1 17
1 18
1 19
1 20
1 21
1 22
1 23
1 24
1 25
1 26
1 27
1 28
1 29
1 30
1 31
1 32
1 33
1 34
1 35
1 36
1 37
1 38
1 39
1 40
1 41
1 42
1 43
1 44
1 45
1 46
1 47
1 48
1 49
1 50
1 51
1 52
1 53
1 54
1 55
1 56
1 57
1 58
1 59
1 60
1 61
1 62
1 63
1 64
1 65
1 66
1 67
1 68
1 69
1 70
1 71
1 72
1 73
1 74
1 75
1 76
1 77
1 78
1 79
1 80
1 81
1 82
1 83
1 84
1 85
1 86
1 87
1 88
1 89
1 90
1 91
1 92
1 93
1 94
1 95
1 96
1 97
1 98
1 99
1 100
1 101
1 102
1 103
1 104
1 105
1 106
1 107
1 108
1 109
1 110
1 111
1 112
1 113
1 114
1 115
1 116
1 117
1 118
1 119
1 120
1 121
1 122
1 123
1 124
1 125
1 126
1 127
1 128
1 129
1 130
1 131
1 132
1 133
1 134
1 135
1 136
1 137
1 138
1 139
1 140
1 141
1 142
1 143
1 144
1 145
1 146
1 147
1 148
1 149
1 150
1 151
1 152
1 153
1 154
1 155
1 156
1 157
1 158
1 159
1 160
1 161
1 162
1 163
1 164
1 165
1 166
1 167
1 168
1 169
1 170
1 171
1 172
1 173
1 174
1 175
1 176
1 177
1 178
1 179
1 180
1 181
1 182
1 183
1 184
1 185
1 186
1 187
1 188
1 189
1 190
1 191
1 192
1 193
1 194
1 195
1 196
1 197
1 198
1 199
1 200
1 201
1 202
1 203
1 204
1 205
1 206
1 207
1 208
1 209
1 210
1 211
1 212
1 213
1 214
1 215
1 216
1 217
1 218
1 219
1 220
1 221
1 222
1 223
1 224
1 225
1 226
1 227
1 228
1 229
1 230
1 231
1 232
1 233
1 234
1 235
1 236
1 237
1 238
1 239
1 240
1 241
1 242
1 243
1 244
1 245
1 246
1 247
1 248
1 249
1 250
1 251
1 252
1 253
1 254
1 255
1 256
1 257
1 258
1 259
1 260
1 261
1 262
1 263
1 264
1 265
1 266
1 267
1 268
1 269
1 270
1 271
1 272
1 273
1 274
1 275
1 276
1 277
1 278
1 279
1 280
1 281
1 282
1 283
1 284
1 285
1 286
1 287
1 288
1 289
1 290
1 291
1 292
1 293
1 294
1 295
1 296
1 297
1 298
1 299
1 300
1 301
1 302
1 303
1 304
1 305
1 306
1 307
1 308
1 309
1 310
1 311
1 312
1 313
1 314
1 315
1 316
1 317
1 318
1 319
1 320
1 321
1 322
1 323
1 324
1 325
1 326
1 327
1 328
1 329
1 330
1 331
1 332
1 333
1 334
1 335
1 336
1 337
1 338
1 339
1 340
1 341
1 342

CELL_TYPES 343
1
1
1
1
1
1
1
1
1
1
1
1
1
1
1
1
1
1
1
1
1
1
1
1
1
1
1
1
1
1
1
1
1
1
1
1
1
1
1
1
1
1
1
1
1
1
1
1
1
1
1
1
1
1
1
1
1
1
1
1
1
1
1
1
1
1
1
1
1
1
1
1
1
1
1
1
1
1
1
1
1
1
1
1
1
1
1
1
1
1
1
1
1
1
1
1
1
1
1
1
1
1
1
1
1
1
1
1
1
1
1
1
1
1
1
1
1
1
1
1
1
1
1
1
1
1
1
1
1
1
1
1
1
1
1
1
1
1
1
1
1
1
1
1
1
1
1
1
1
1
1
1
1
1
1
1
1
1
1
1
1
1
1
1
1
1
1
1
1
1
1
1
1
1
1
1
1
1
1
1
1
1
1
1
1
1
1
1
1
1
1
1
1
1
1
1
1
1
1
1
1
1
1
1
1
1
1
1
1
1
1
1
1
1
1
1
1
1
1
1
1
1
1
1
1
1
1
1
1
1
1
1
1
1
1
1
1
1
1
1
1
1
1
1
1
1
1
1
1
1
1
1
1
1
1
1
1
1
1
1
1
1
1
1
1
1
1
1
1
1
1
1
1
1
1
1
1
1
1
1
1
1
1
1
1
1
1
1
1
1
1
1
1
1
1
1
1
1
1
1
1
1
1
1
1
1
1
1
1
1
1
1
1
1
1
1
1
1
1
1
1
1
1
1
1
1
1
1
1
1
1
1
1
1
1
1
1
1
1
1
1
1
1

POINT_DATA 343
FIELD FieldData 8

NodeID_(#) 1 343 int
0
1
2
3
4
5
6
7
8
9
10
11
12
13
14
15
16
17
18
19
20
21
22
23
24
25
26
27
28
29
30
31
32
33
34
35
36
37
38
39
40
41
42
43
44
45
46
47
48
49
50
51
52
53
54
55
56
57
58
59
60
61
62
63
64
65
66
67
68
69
70
71
72
73
74
75
76
77
78
79
80
81
82
83
84
85
86
87
88
89
90
91
92
93
94
95
96
97
98
99
100
101
102
103
104
105
106
107
108
109
110
111
112
113
114
115
116
117
118
119
120
121
122
123
124
125
126
127
128
129
130
131
132
133
134
135
136
137
138
139
140
141
142
143
144
145
146
147
148
149
150
151
152
153
154
155
156
157
158
159
160
161
162
163
164
165
166
167
168
169
170
171
172
173
174
175
176
177
178
179
180
181
182
183
184
185
186
187
188
189
190
191
192
193
194
195
196
197
198
199
200
201
202
203
204
205
206
207
208
209
210
211
212
213
214
215
216
217
218
219
220
221
222
223
224
225
226
227
228
229
230
231
232
233
234
235
236
237
238
239
240
241
242
243
244
245
246
247
248
249
250
251
252
253
254
255
256
257
258
259
260
261
262
263
264
265
266
267
268
269
270
271
272
273
274
275
276
277
278
279
280
281
282
283
284
285
286
287
288
289
290
291
292
293
294
295
296
297
298
299
300
301
302
303
304
305
306
307
308
309
310
311
312
313
314
315
316
317
318
319
320
321
322
323
324
325
326
327
328
329
330
331
332
333
334
335
336
337
338
339
340
341
342

Component_(#) 1 343 int
0
0
0
0
0
0
0
0
0
0
0
0
0
0
0
0
0
0
0
0
0
0
0
0
0
0
0
0
0
0
0
0
0
0
0
0
0
0
0
0
0
0
0
0
0
0
0
0
0
0
0
0
0
0
0
0
0
0
0
0
0
0
0
0
0
0
0
0
0
0
0
0
0
0
0
0
0
0
0
0
0
0
0
0
0
0
0
0
0
0
0
0
0
0
0
0
0
0
0
0
0
0
0
0
0
0
0
0
0
0
0
0
0
0
0
0
0
0
0
0
0
0
0
0
0
0
0
0
0
0
0
0
0
0
0
0
0
0
0
0
0
0
0
0
0
0
0
0
0
0
0
0
0
0
0
0
0
0
0
0
0
0
0
0
0
0
0
0
0
0
0
0
0
0
0
0
0
0
0
0
0
0
0
0
0
0
0
0
0
0
0
0
0
0
0
0
0
0
0
0
0
0
0
0
0
0
0
0
0
0
0
0
0
0
0
0
0
0
0
0
0
0
0
0
0
0
0
0
0
0
0
0
0
0
0
0
0
0
0
0
0
0
0
0
0
0
0
0
0
0
0
0
0
0
0
0
0
0
0
0
0
0
0
0
0
0
0
0
0
0
0
0
0
0
0
0
0
0
0
0
0
0
0
0
0
0
0
0
0
0
0
0
0
0
0
0
0
0
0
0
0
0
0
0
0
0
0
0
0
0
0
0
0
0
0
0
0
0
0
0
0
0
0
0
0
0
0
0
0
0
0
0
0
0
0
0
0
0
0
0
0
0
0

NodalMass_(kg) 1 343 double
3.15563e-06
1.41304e-05
2.20912e-06
1.71484e-05
8.42e-06
9.09306e-06
1.01179e-05
7.52198e-06
6.81096e-06
5.58223e-06
3.10888e-06
1.07575e-05
4.87011e-06
1.64955e-05
3.0246e-06
8.05984e-06
6.703e-06
1.0877e-05
4.18978e-06
8.16106e-06
6.14143e-06
1.17902e-05
2.23114e-06
4.25176e-06
1.09915e-05
7.41467e-06
4.21871e-06
3.92484e-06
3.08766e-06
1.31268e-05
7.72627e-06
1.65404e-05
1.19037e-05
7.97564e-06
3.81683e-06
1.11001e-05
3.81317e-06
1.39137e-05
6.37414e-06
8.00975e-06
7.6712e-06
1.21135e-05
1.6399e-05
2.78633e-06
8.93599e-06
2.58087e-06
7.57362e-06
4.23241e-06
1.31286e-05
3.80168e-06
2.7746e-06
7.16776e-06
1.21307e-05
5.11765e-06
8.19728e-06
4.58094e-06
2.79503e-06
3.26126e-06
4.12443e-06
2.11915e-06
3.35177e-06
3.61669e-06
1.56838e-05
7.33679e-06
8.24695e-06
5.00369e-06
2.82625e-06
7.20276e-06
3.26815e-06
4.18751e-06
2.02785e-06
2.42152e-06
3.11835e-06
5.97459e-06
5.87101e-06
4.09374e-06
5.45463e-06
2.28825e-06
4.49759e-06
4.38192e-06
4.50892e-06
4.39234e-06
4.27273e-06
5.32031e-06
1.53201e-06
2.38869e-06
2.02885e-06
4.38798e-06
3.17972e-06
3.14298e-06
4.61567e-06
5.87645e-06
8.18088e-06
2.48341e-06
1.53815e-05
3.49683e-06
7.35227e-06
2.01314e-06
2.0408e-06
7.98183e-06
4.41293e-06
7.1389e-06
1.20123e-06
5.03343e-06
1.61257e-06
4.12601e-06
8.73748e-06
4.37849e-06
7.97173e-06
2.13557e-06
3.38137e-06
9.48623e-06
7.40262e-06
1.80226e-06
2.10222e-06
7.98889e-06
1.87983e-06
7.44814e-06
4.19782e-06
2.37156e-06
4.31705e-06
6.06441e-06
4.30905e-06
2.16843e-06
1.8986e-06
1.81294e-06
3.89762e-06
2.44299e-06
1.65628e-06
8.01374e-06
1.64513e-06
2.3931e-06
3.01363e-06
2.99431e-06
1.36541e-06
1.87293e-06
2.09622e-06
1.94762e-06
1.87618e-06
6.37913e-06
4.58628e-06
2.02767e-06
1.61999e-06
2.41284e-06
3.8865e-06
4.44973e-06
2.29839e-06
1.17349e-05
3.11811e-06
1.354e-06
3.45063e-06
1.81846e-06
2.9382e-06
1.37381e-06
2.41464e-06
2.10451e-06
2.63927e-06
2.14166e-06
1.7943e-06
3.19976e-06
1.36989e-06
2.43489e-06
2.08158e-06
1.3601e-06
2.17203e-06
1.89924e-06
3.16996e-06
2.6119e-06
2.37677e-06
1.60225e-06
1.90684e-06
5.49206e-06
1.87878e-06
3.14313e-06
2.97301e-06
1.18454e-06
1.89263e-06
2.04166e-06
2.73572e-06
2.42405e-06
3.23083e-06
3.19752e-06
3.2142e-06
1.94492e-06
1.61196e-06
1.86876e-06
3.22435e-06
2.1114e-06
2.96917e-06
6.15288e-06
2.3097e-06
2.39729e-06
2.38029e-06
2.64508e-06
1.66557e-06
1.82377e-06
2.06583e-06
5.73271e-06
2.08467e-06
2.18324e-06
2.43522e-06
3.1188e-06
3.17316e-06
2.05447e-06
1.9592e-06
3.05718e-06
6.44327e-06
2.08796e-06
2.72615e-06
2.15709e-06
1.86812e-06
2.0028e-06
2.10999e-06
2.88994e-06
2.3222e-06
2.3979e-06
1.97629e-06
6.4127e-06
2.16225e-06
3.29198e-06
2.10223e-06
2.66566e-06
1.94415e-06
2.91865e-06
2.58116e-06
2.11703e-06
2.09534e-06
1.91719e-06
7.06046e-06
2.25203e-06
2.06378e-06
6.28159e-06
2.12147e-06
2.90924e-06
2.12921e-06
6.4487e-06
1.41701e-06
2.0682e-06
6.58062e-06
2.52584e-06
2.39732e-06
7.42191e-07
2.22368e-06
7.06751e-07
7.00657e-07
8.93749e-07
2.53536e-06
2.26535e-06
1.33607e-06
7.84725e-07
2.32303e-06
6.06694e-07
6.68276e-07
6.84307e-07
2.51242e-06
2.31629e-06
7.8367e-07
6.80839e-07
6.22692e-06
6.7471e-07
6.65305e-07
7.01158e-07
1.8232e-06
1.90695e-06
6.86722e-07
7.04792e-07
1.86445e-06
2.28572e-06
6.8045e-07
7.16005e-07
1.82373e-06
6.01079e-07
2.02791e-06
7.4579e-07
5.74423e-07
1.80052e-06
1.454e-06
2.2702e-06
1.80636e-06
2.15356e-06
1.79089e-06
1.79456e-06
6.8231e-07
2.24737e-06
1.45239e-06
1.79556e-06
6.97875e-07
6.24265e-07
6.62717e-07
1.44627e-06
1.40138e-06
2.15258e-06
1.82851e-06
1.3994e-06
1.43932e-06
2.19226e-06
6.97732e-07
1.77726e-06
1.79162e-06
6.54258e-07
7.3397e-07
2.34895e-06
7.10392e-07
6.56982e-07
6.26314e-07
2.18926e-06
6.12493e-07
6.03901e-07
5.92831e-07
5.12031e-07
5.11667e-07
4.9467e-07
4.97016e-07
4.96269e-07
5.33079e-07
4.94191e-07
4.97855e-07
4.86862e-07
4.90626e-07
4.94649e-07
4.94954e-07
4.91922e-07
4.89615e-07
4.96354e-07
4.95189e-07
4.82188e-07
1.10854e-06
5.3299e-07
5.44763e-07
5.36655e-07
5.15417e-07
5.01772e-07
5.53774e-07
5.53774e-07
5.53774e-07
5.53774e-07
5.53774e-07
5.53774e-07
5.50785e-07
5.50785e-07
7.45291e-07
7.11668e-07
4.9897e-07

NodalForce_(N) 3 343 double
-3.49439e-08 1.34513e-08 -1.64904e-09
-3.17568e-07 1.79172e-07 -9.895e-08
0.000301161 3.36344e-05 0.000584685
1.03575e-07 2.0954e-07 -1.02815e-07
5.47e-07 9.48607e-07 -4.09083e-07
3.80586e-07 8.92677e-07 -4.3091e-07
-9.68222e-08 2.15694e-06 -1.04143e-06
-2.26107e-07 1.06762e-06 -5.45506e-07
4.9362e-07 1.24581e-06 -5.57125e-07
-5.91287e-08 4.82232e-07 -2.49362e-07
3.92868e-07 2.79181e-07 -9.49335e-08
1.19842e-06 1.31627e-06 -5.31004e-07
6.84607e-07 4.61848e-07 -1.46032e-07
5.64313e-07 1.80892e-07 -1.20748e-07
2.90041e-07 2.36533e-07 -1.00433e-07
-3.03251e-07 1.36122e-06 -6.63715e-07
-3.52781e-07 9.73124e-07 -4.89083e-07
2.47581e-07 1.7749e-07 -9.30718e-08
0.000776411 0.00064009 0.000325575
1.84997e-08 4.35376e-08 -1.76163e-08
1.09457e-07 1.14581e-06 -5.42849e-07
1.00227e-06 2.84993e-06 -1.26133e-06
0.00174935 -0.000398654 0.000350335
6.8865e-08 3.90061e-07 -1.45968e-07
3.47651e-07 1.25896e-06 -6.32279e-07
-1.31444e-07 4.42199e-07 -2.74514e-07
1.10502e-07 1.90692e-08 -1.64751e-08
2.81734e-07 3.71002e-07 -1.70413e-07
-2.1266e-07 6.21914e-08 -3.61421e-08
-5.78375e-07 1.00589e-07 -8.50311e-08
-5.66449e-07 3.85179e-07 -2.89873e-07
-1.3876e-06 3.71005e-06 -1.75171e-06
4.44682e-07 2.73314e-06 -1.25289e-06
-3.73463e-07 1.99044e-06 -9.44192e-07
-7.13084e-07 1.29186e-06 -6.04609e-07
-1.31899e-06 2.26179e-06 -1.10047e-06
-8.62617e-07 9.99272e-07 -4.66176e-07
-2.55094e-06 3.16165e-06 -1.59991e-06
2.67801e-07 2.9504e-07 -1.35959e-07
4.63229e-07 5.60969e-07 -3.00684e-07
5.85452e-07 5.44643e-07 -1.98638e-07
-6.06315e-07 1.08027e-06 -5.50515e-07
-2.33041e-07 1.7387e-07 -6.28557e-08
-1.90289e-07 8.32805e-08 -2.7534e-08
-6.33946e-07 5.04e-07 -2.17941e-07
0.00106613 6.48418e-06 -0.000352711
-1.17917e-07 6.61134e-08 -3.37292e-08
0.000375679 0.00060353 -0.00047328
5.43648e-08 1.80075e-07 -1.01379e-07
4.76722e-08 2.42088e-08 -3.00202e-09
-5.39971e-08 5.0398e-07 -2.30304e-07
9.2042e-09 9.32041e-07 -4.72872e-07
-3.49062e-07 1.00205e-07 -7.05889e-08
-1.18976e-07 1.24722e-07 -6.72386e-08
-4.87563e-08 5.63982e-08 -3.10623e-08
-4.2506e-10 1.5585e-06 -6.93865e-07
0.000825045 -0.00024521 3.93238e-05
-9.52537e-08 2.59975e-08 -5.91511e-09
0.00192596 -0.000592888 0.00067339
-1.55354e-07 7.13791e-07 -3.28188e-07
1.64341e-07 9.98151e-08 -5.19639e-08
3.69064e-07 1.34956e-06 -5.89079e-07
7.11237e-07 4.11224e-06 -1.89607e-06
1.42173e-07 1.94382e-06 -9.09059e-07
4.72448e-07 5.52602e-07 -2.16489e-07
-1.62663e-07 8.6999e-09 -1.06265e-08
2.61885e-07 1.23267e-07 -3.82953e-08
4.32566e-07 9.87391e-07 -4.75544e-07
-4.12726e-07 1.10305e-06 -5.21228e-07
6.58765e-07 1.26366e-06 -5.42887e-07
-4.60704e-08 8.88914e-08 -4.32289e-08
1.84001e-07 8.43907e-08 -3.24799e-08
2.078e-07 1.45514e-07 -4.72786e-08
1.05369e-07 4.54311e-07 -2.53006e-07
4.44771e-08 2.00269e-07 -1.06104e-07
0.0013686 -0.000293573 -0.000493847
5.49645e-08 4.84332e-07 -2.52811e-07
-1.77868e-08 1.05047e-08 -2.67768e-09
-2.05748e-07 5.6454e-07 -2.49944e-07
-5.22045e-07 5.92856e-07 -2.90024e-07
-3.69556e-07 3.17833e-07 -1.54904e-07
-1.36809e-07 2.89977e-07 -1.09027e-07
-6.21135e-07 1.43768e-06 -6.66306e-07
-2.45538e-07 1.48601e-07 -9.99578e-08
0.00120547 0.000329351 0.000227629
-8.11349e-08 2.64403e-09 -1.35427e-10
0.00121365 -0.000150447 -0.000273134
0.00180532 -0.000243824 -0.000496662
0.00104471 0.000798106 -0.000565075
-1.24881e-07 6.88668e-08 -3.59962e-08
3.03201e-08 2.15495e-08 -4.09718e-09
-2.03559e-07 5.33217e-07 -2.74925e-07
-2.59498e-08 2.84315e-07 -1.91205e-07
3.458e-07 4.83971e-07 -1.98001e-07
2.23871e-06 3.94871e-06 -1.62071e-06
4.45126e-07 7.64222e-07 -3.31988e-07
5.39634e-07 1.17883e-06 -5.31324e-07
6.54735e-08 7.25954e-07 -3.30371e-07
0.00179157 0.000811193 -4.72367e-05
-7.79183e-07 1.18142e-06 -5.47875e-07
1.29832e-07 7.01676e-07 -3.00252e-07
-1.0378e-07 1.04381e-06 -5.42894e-07
-9.89536e-08 4.92384e-08 -2.15876e-08
-9.93944e-07 1.31286e-06 -6.03671e-07
9.66811e-09 6.07018e-08 -2.11661e-08
3.97641e-07 7.02901e-07 -3.28061e-07
-1.24138e-06 1.27224e-06 -6.39676e-07
8.0723e-07 1.31312e-06 -5.43585e-07
9.16815e-07 1.32233e-06 -5.34607e-07
4.90389e-08 6.16231e-09 -2.82516e-09
-5.93316e-07 6.20158e-07 -3.15839e-07
-1.21291e-06 9.28837e-07 -5.17134e-07
-7.43968e-07 9.11275e-07 -5.2928e-07
0.000652179 0.000381602 -0.000469489
1.61156e-07 7.88987e-07 -3.49102e-07
8.78334e-08 6.49678e-08 -4.44331e-08
-3.74924e-07 6.37812e-07 -3.04113e-07
-6.02809e-07 1.88025e-06 -9.07937e-07
-9.37402e-07 5.95082e-07 -2.95905e-07
4.47005e-07 5.16823e-07 -1.94129e-07
5.59661e-07 1.60395e-06 -6.84981e-07
3.22155e-07 1.59573e-06 -7.25659e-07
1.38431e-07 3.12984e-08 -1.49061e-08
0.00145976 0.000182486 0.000405646
6.17062e-08 1.45376e-08 -1.92925e-09
-1.51704e-07 6.11358e-07 -2.83281e-07
-7.65951e-07 4.98998e-07 -2.5603e-07
0.00166637 0.000455565 -0.00078576
-9.72737e-10 7.24522e-09 -1.55642e-09
-7.87128e-07 5.28387e-07 -2.47785e-07
-2.78972e-07 4.33255e-07 -1.96994e-07
-2.92861e-07 8.00446e-07 -3.65052e-07
4.80501e-07 4.50445e-07 -1.70551e-07
2.63216e-07 5.81949e-07 -2.577e-07
0.00117976 -0.000192943 0.0004208
-4.35548e-08 4.08669e-09 -4.78761e-09
0.00145545 -0.000337534 0.000401085
2.53336e-07 5.98232e-07 -2.63663e-07
-2.62536e-07 6.36353e-07 -3.04467e-07
-7.69369e-07 1.63534e-06 -8.05783e-07
1.30285e-07 1.17056e-06 -5.14424e-07
3.79743e-07 4.80247e-07 -1.81983e-07
3.44797e-07 4.93897e-07 -1.89152e-07
3.87529e-07 8.97769e-07 -3.71243e-07
0.00104232 0.00056221 -0.000757751
8.65344e-07 7.49414e-07 -2.65391e-07
2.2494e-07 2.24324e-07 -8.41269e-08
-6.74037e-07 2.74822e-06 -1.35144e-06
-1.13876e-07 1.09704e-06 -5.07464e-07
-1.44075e-07 9.9846e-08 -3.86625e-08
-3.44708e-07 1.02385e-07 -4.69479e-08
3.50268e-08 9.22928e-09 -6.10992e-09
0.00230663 0.000711193 -1.80553e-05
-3.49331e-08 4.68975e-07 -2.12716e-07
-5.28778e-07 4.49251e-07 -2.1296e-07
-1.50471e-07 4.32502e-07 -1.91904e-07
0.00151623 9.86311e-05 -0.000675381
0.000923487 0.000837077 0.00179895
5.35298e-08 2.98594e-07 -1.42195e-07
2.78536e-07 1.14237e-06 -4.97669e-07
1.79379e-07 1.32959e-07 -4.12181e-08
-1.19056e-07 6.01022e-08 -2.59664e-08
7.25318e-08 5.02921e-07 -2.2047e-07
4.7208e-09 1.57362e-07 -7.76731e-08
-1.35193e-07 7.28313e-07 -3.2389e-07
-7.20617e-08 4.89277e-07 -2.17115e-07
-7.02422e-08 6.17001e-07 -2.95108e-07
-1.87123e-07 8.3297e-08 -6.00205e-08
-5.49563e-07 4.92697e-07 -2.44878e-07
-4.08416e-07 3.43888e-07 -1.67409e-07
-2.7628e-07 2.29675e-07 -1.24929e-07
-5.40637e-07 9.56121e-07 -5.00591e-07
1.97732e-07 4.72025e-07 -2.11028e-07
8.36289e-08 7.74231e-08 -4.9661e-08
8.90083e-08 1.72088e-07 -1.01175e-07
7.35922e-08 7.55756e-08 -4.19138e-08
-2.63259e-07 3.97928e-07 -1.83122e-07
1.77886e-07 7.81512e-08 -1.86864e-08
-2.18444e-07 9.43319e-07 -4.42148e-07
0.00182752 -0.000118757 0.000267119
2.40163e-07 1.126e-06 -4.86707e-07
-2.08053e-07 8.74244e-07 -4.08757e-07
2.91092e-08 1.17311e-06 -5.30643e-07
0.00140262 -0.000205033 -0.000301185
-2.44064e-08 4.1317e-08 -1.54647e-08
4.0855e-07 4.66903e-07 -1.68578e-07
4.92344e-07 8.86875e-07 -3.57098e-07
1.96227e-07 5.97793e-07 -2.51685e-07
-4.31475e-07 3.76322e-07 -1.62404e-07
-5.03687e-07 5.94272e-07 -2.89106e-07
-3.92015e-07 2.93378e-07 -1.30309e-07
-3.76752e-07 4.38702e-07 -1.92543e-07
1.12905e-08 4.90901e-08 -3.74233e-08
-1.4766e-07 1.61977e-07 -1.01868e-07
1.2135e-07 8.19218e-08 -2.85765e-08
1.71139e-07 1.02105e-07 -3.54675e-08
-1.1476e-07 7.33205e-07 -3.38742e-07
-6.06432e-07 2.93779e-07 -1.75455e-07
-2.32115e-08 7.29517e-07 -3.38377e-07
-2.60455e-07 3.57281e-07 -1.86674e-07
-6.2044e-07 6.46612e-07 -3.08391e-07
0.0015414 -0.000329245 -9.71817e-05
-9.64584e-08 9.12188e-09 -5.62303e-09
0.00134361 -0.000621675 3.73444e-05
-3.05358e-07 1.42194e-07 -7.35015e-08
-5.04311e-07 2.32905e-07 -1.13289e-07
-2.57868e-07 5.50285e-07 -3.29155e-07
-1.62581e-07 4.1738e-07 -2.06041e-07
3.44692e-07 4.27646e-07 -1.73117e-07
3.25026e-07 3.38182e-07 -1.20954e-07
-6.84206e-08 5.86446e-09 -1.09629e-09
-9.75991e-09 5.77381e-07 -2.60588e-07
7.01704e-08 7.31215e-07 -3.2588e-07
-5.53377e-07 5.51209e-07 -2.52556e-07
2.38066e-07 2.96808e-07 -1.32199e-07
1.10419e-07 8.60192e-08 -3.42997e-08
2.70823e-07 7.17683e-07 -2.98752e-07
-3.37423e-08 1.08803e-07 -6.91278e-08
-1.33151e-07 2.84506e-07 -1.54328e-07
-4.42046e-07 8.3093e-07 -4.01436e-07
-2.62851e-07 2.46066e-07 -1.10397e-07
4.69277e-08 9.29609e-07 -4.22175e-07
-3.63388e-07 2.30316e-07 -1.04875e-07
4.63317e-07 6.54121e-07 -2.70412e-07
-2.26083e-07 7.59086e-08 -3.20839e-08
0.00163489 0.000290539 0.00074109
-1.27625e-08 1.42261e-07 -7.29825e-08
3.1659e-07 2.81378e-07 -9.56446e-08
-1.52979e-07 2.83793e-07 -1.61531e-07
-2.88083e-07 1.69365e-07 -6.92631e-08
2.41385e-07 2.04779e-07 -7.17998e-08
-1.39252e-08 2.54522e-07 -1.44054e-07
0.00203592 -0.00142948 8.61773e-05
0.00188291 0.000712322 -0.00115777
-2.09498e-07 1.75757e-07 -1.14177e-07
-4.29611e-07 5.40596e-07 -3.08846e-07
1.48883e-07 2.07791e-07 -8.81618e-08
-1.08352e-07 7.09821e-07 -3.29529e-07
-2.26229e-07 2.6468e-07 -1.44276e-07
1.32883e-07 2.86674e-07 -1.45846e-07
-2.64108e-07 8.30325e-07 -3.90032e-07
0.000839075 0.000732201 2.28051e-05
-4.48054e-07 5.82443e-07 -2.8159e-07
2.9404e-08 5.34914e-08 -2.2676e-08
0.000902657 -2.34684e-05 -0.000977325
-6.79271e-08 9.25038e-08 -4.15018e-08
0.00208509 -0.00114532 0.000142495
-4.10334e-07 7.67385e-07 -3.67309e-07
-2.28938e-07 4.58589e-07 -2.14915e-07
0.000783519 -0.00107366 0.000123181
-3.85766e-08 2.44668e-07 -1.21245e-07
0.000746846 0.00119342 -6.59491e-05
9.65174e-08 2.57546e-07 -1.11086e-07
-1.28611e-07 2.31493e-07 -1.04776e-07
-2.99747e-07 1.49714e-07 -9.4621e-08
1.40388e-07 8.30439e-07 -3.72785e-07
4.75859e-08 1.07827e-07 -4.6153e-08
0.00065432 -0.000181441 0.00079648
1.29649e-07 3.04572e-07 -1.5097e-07
1.22444e-07 9.02516e-08 -2.60562e-08
1.33096e-07 2.54698e-07 -1.03312e-07
0.000410589 -0.000447309 0.00103016
-5.05233e-07 5.04564e-07 -2.41222e-07
-4.46031e-07 6.49829e-07 -3.08162e-07
1.18497e-07 2.63104e-07 -1.1104e-07
-7.4291e-08 2.48058e-07 -1.14202e-07
3.42913e-09 1.78086e-08 -1.13546e-09
0.000995612 0.000551414 3.19761e-05
0.000663374 -0.000984899 0.000186395
0.000710174 -0.000985612 0.000109746
-4.56286e-07 4.99108e-07 -2.37337e-07
-1.47112e-07 2.04884e-07 -9.5691e-08
-2.95218e-07 1.53251e-07 -6.09943e-08
-4.03483e-09 2.50701e-07 -1.10201e-07
0.000771634 0.000476144 0.00014507
0.000411661 0.000369096 -0.000519359
4.62914e-08 1.41721e-08 -7.86658e-11
5.52564e-08 1.31775e-08 -3.91016e-09
-2.70689e-07 4.96167e-07 -2.25928e-07
-1.34769e-08 1.28268e-08 -1.24232e-09
0.000625065 -0.000193511 -0.00030396
-1.94283e-07 6.03486e-07 -2.69504e-07
-1.78527e-07 1.18861e-07 -5.56016e-08
1.40286e-07 8.53072e-07 -3.75423e-07
-2.66322e-08 6.56028e-09 -9.1946e-09
-1.53048e-07 4.88389e-07 -2.15219e-07
4.21695e-08 2.40606e-07 -1.0296e-07