# vtk DataFile Version 4.2
vtk output
ASCII
DATASET UNSTRUCTURED_GRID

POINTS 343 double
0.00160473 0.00421583 -2.02699e-05
0.00310346 0.00502312 0.00213619
0 0.00419538 0.00112517
0.00276226 0.00199031 0.00190737
0.00740863 0.00250704 0.0049432
0.00740512 0.00392864 0.00630874
0.0109159 0.00492292 0.00487071
0.00891604 0.00497029 0.00358549
0.00979195 0.00342109 0.00679852
0.00714445 0.00508753 0.00491357
0.00598542 0.00119874 0.0099261
0.00756435 0.00218233 0.00781333
0.0060058 7.39804e-05 0.00824517
0.00287628 0.00203928 0.00799764
0.00613284 0.00261422 0.00992403
0.00995136 0.00657979 0.0068293
0.0091791 0.00630529 0.00507407
0.00323415 0.00222663 0.00510595
0 0.00143586 0.00417514
0.00227944 0.00349556 0.00400836
0.00980074 0.00332711 0.00304586
0.0111028 0.00236611 0.00493366
0 0.00270918 0.00154168
0.00596777 0.00151025 -7.018e-05
0.00718256 0.00228549 0.00211179
0.00567807 0.00360276 0.0015348
0.00192604 2.3865e-05 0.00403615
0.00600581 7.46246e-05 0.00161573
0.00375664 0.00700118 -4.52355e-05
0.00276631 0.00808877 0.00190969
0.00585108 0.00632557 0.00157445
0.0114422 0.00813783 0.00786223
0.0114002 0.00497012 0.00788777
0.0120012 0.00624202 0.00580666
0.0142884 0.00901227 0.00402853
0.0108394 0.00778056 0.00483597
0.012248 0.0101454 0.00402402
0.0114169 0.00812451 0.00188278
0.00506021 0.0031029 0.00689811
0.006349 0.00374551 0.00824668
0.00557722 0.00167561 0.00590134
0.00715252 0.00776197 0.00759045
0.00283776 0.0080445 0.00795441
0.00403313 0.0100492 0.00707709
0.00559516 0.00847237 0.0058891
0 0.00695361 0.00262895
0.00235129 0.00626979 0.00405825
0 0.0040177 0.00850214
0.00330608 0.00502824 0.00762063
0.00204542 0.00420028 0.00997451
0.0102557 0.00725381 0.00987586
0.00874932 0.00608674 0.00831265
0.00292862 0.00797949 0.00470494
0.00434862 0.00699994 0.00641435
0.00226577 0.0061077 0.00589756
0.0142781 0.00597629 0.00814369
0 0.00718191 0.00711644
0.00226402 0.00580333 -2.83537e-05
0 0.00577432 0.00158701
0.0142813 0.00734822 0.00694553
0.00409739 0.0034021 0.00994839
0.0142781 0.00161124 0.00401116
0.0115279 0.00210251 0.0018455
0.0120182 0.00366655 0.00385816
0.00534072 0.00172004 0.00406274
0.00215083 0.0100272 0.00578777
0.00402703 5.03552e-05 0.00707872
0.00874417 0.00428818 0.00827106
0.0142842 0.00744286 0.00403139
0.0122348 0.000145999 0.00402545
0.00479058 0.00293412 -5.68449e-05
0.00386142 0.00158936 0.0099515
0.00404341 5.07074e-05 0.00278217
0.00686274 0.00528461 0.00747116
0.00452205 0.00320591 0.00311108
0 0.00849157 0.00581511
0.00696966 0.00376296 0.0037017
0.00219939 0.00273726 -2.74793e-05
0.00828327 0.00842414 0.00989861
0.00854563 0.0101018 0.00840299
0.00601415 0.0100725 0.00824416
0.00573451 0.00857262 0.00992832
0.0142844 0.00865423 0.00564583
0.00450002 0.00689299 0.00309423
0 0.00748929 0.00137438
0.00196013 0.00751452 -2.47244e-05
0 0.00287343 0.00335182
0 0.00580816 0.00831736
0 0.00429792 0.00253898
0.0036273 0.00434404 -4.36684e-05
0.00204498 0.00584509 0.00997445
0.00740144 0.00656646 0.00631079
0.00514796 0.00657618 0.00817063
0.00992628 0.00274748 0.00987963
0.0114627 0.00209678 0.00789919
0.00996413 0.00012079 0.00296446
0.00860635 0.00177015 0.00351024
0.0142802 0.00304606 0.00318836
0 0.00140616 0.00256446
0.00911159 0.00833708 0.00631189
0.00832182 0.00153834 -9.65631e-05
0.00863416 0.00365816 0.0015015
0.00450609 0.0100547 0.00576871
0.0122373 0.0101454 0.00568784
0.00366293 0.00145238 -4.39391e-05
0.00854422 0.000104585 0.00139342
0.00898373 0.008396 0.00350945
0.0122249 0.000145963 0.00568929
0.00886812 0.00178156 0.00625961
0.00200245 0.00258914 0.00997495
0.0101849 0.00730448 -0.000118292
0.00739119 0.00778038 0.00207957
0.00850258 0.00619754 0.0015012
0 0.00686719 0.00578184
0.0142823 0.00158212 0.00240325
0.00253231 0.00364232 0.00637627
0.0142909 0.00864932 0.00246052
0.0120265 0.00633268 0.0039921
0.00855616 0.0101027 0.00139156
0.00995649 0.000120341 0.00680898
0.0142756 0.00161052 0.00565146
0.0119995 0.00371757 0.00591916
0.00214911 2.65731e-05 0.00578858
0 0.0013659 0.00748679
0.00195028 2.41023e-05 0.00750492
0.0142816 0.00703493 0.00561181
0.00832403 0.00859257 -9.81335e-05
0 0.0075208 0.00859127
0.00194589 0.00751085 0.00997579
0.00604884 0.00827966 0.0035532
0.0122835 0.0101444 0.00736565
0.0142848 0.00879235 0.0073539
0.00824245 0.00168776 0.0098994
0.0103689 0.0043129 0.00987423
0 0.0057735 0.00666667
0.00195222 0.0100247 0.00750409
0 0.00863025 0.00752641
0.0122768 0.000147943 0.002365
0.0142868 0.00712273 0.0024663
0.0120988 0.00648628 0.00202282
0.0121589 0.00596835 0.00985454
0.0106959 0.00150396 0.00987122
0.0122707 0.000147569 0.00736733
0.0142752 0.00154082 0.00731573
0 0.00143551 0.00581971
0.00853379 0.000103992 0.00840365
0.00601821 7.4362e-05 0.00332674
0.0113488 0.00484491 0.00190276
0.0142831 0.00446883 0.00237747
0.00604064 0.0100728 0.00659215
0.00404858 0.0100491 0.00278069
0.00187165 2.34205e-05 0.00239481
0 0.00727418 0.00419576
0.0142788 0.005942 0.00649583
0.00997627 0.010119 0.00296257
0.0107288 0.00876289 0.00987029
0 0.00574334 0.00336387
0 0.0043297 0.00416652
0.00981268 0.00590175 0.00988108
0.014275 0.00319421 0.00674611
0.00603154 7.44194e-05 0.00659381
0.0035353 0.0100431 0.0085673
0.0107075 0.00149711 -0.000122662
0.00824679 0.0067662 0.00989916
0.0142823 0.00768607 0.00841626
0.0123029 0.00769781 0.00985241
0.00989133 0.0031434 -0.000113721
0.00480899 0.00580426 -5.71878e-05
0.0107745 0.00875932 -0.000124276
0.0107561 0.0101279 0.00126139
0.00827421 0.00696799 -9.70523e-05
0.00997606 0.00649182 0.00291508
0.0107439 0.000131016 0.00126239
0.0041137 0.00504941 0.00994842
0.00618109 0.0059089 0.00992343
0.00617928 0.00424192 0.00992353
0.0107459 0.0101261 0.00848754
0.00352987 4.37841e-05 0.00856835
0.0142833 0.00591251 0.00320039
0 0.00302218 0.00691532
0.0142758 0.00418901 0.0083274
0.0121627 0.00416508 -0.000138195
0.0142854 0.00288221 0.00138414
0 0.00244495 0.00857025
0.00348775 0.00861283 0.00995616
0.0107331 0.00013024 0.00848858
0.0121246 0.00276932 0.00985471
0.0126441 0.00434522 0.00984817
0.00810791 0.0100969 0.00573513
0.0074145 0.00767376 0.00494233
0.00807064 0.0100964 0.00411688
0.00996867 0.0101186 0.00680763
0.004312 0.00696889 0.00994601
0.00595803 0.00440466 -6.99532e-05
0.0040465 5.03113e-05 0.0043551
0.00449941 5.61295e-05 0.00577078
0.0142881 0.00436697 0.000968329
0.00520155 0.00840169 0.00152467
0.0142799 0.00450013 0.00400168
0.00953924 0.00588913 -0.000111004
0.0122896 0.0101456 0.00236375
0 0.00848692 0.00262374
0.0019272 0.0100246 0.00403526
0 0.00885053 0.00419359
0.00600042 0.00892381 -7.14525e-05
0.00601446 0.0100724 0.00161432
0.00714799 0.00488031 0.00229311
0.0103285 0.00464731 -0.000118848
0.00805908 9.84756e-05 0.00411921
0.00809681 9.89842e-05 0.00573693
0.00187243 0.0100237 0.00239381
0.0122583 0.00259441 -0.000139591
0.014276 0.00469226 0.00704878
0.0101759 0.0101214 0.00487848
0.00820001 0.00346369 0.00989949
0.00350907 4.43349e-05 0.00131346
0.0142756 0.0026184 0.00839527
0.00341868 0.00483416 0.00495738
0.00834409 0.00443289 -9.67504e-05
0.0119015 0.00595058 -0.000135212
0.00783247 0.0100937 0.00712525
0.0142769 0.00450046 0.00566525
0.0077296 0.0100926 0.00268181
0.0101639 0.000122721 0.00487996
0.0040517 0.0100493 0.00435294
0 0.00452174 0.00721958
0.00645559 0.00729847 0.00992003
0.00782146 9.5735e-05 0.00712635
0.00514827 0.00513849 0.00353255
0.00607814 0.010073 0.00493277
0.00606875 7.50067e-05 0.00493524
0.00524276 0.00528203 0.00611035
0 0.005744 0.00499998
0 0.00433013 0.00583333
0.00715285 0.00583286 -8.37952e-05
0.00712748 0.00642708 0.00346697
0.00771819 9.4585e-05 0.00268377
0.0142804 0.00591176 0.00483288
0.00527288 0.00647393 0.00477868
0.00820262 0.00509922 0.00989955
0.0142886 0.00594278 0.00142872
0 0.00666667 0
0.0122951 0.00766656 -0.000139687
0.00476225 5.95401e-05 -5.59583e-05
0 0.01 0.00666667
0.00714401 0.0100848 0.00991221
0 0.00288419 0.00499914
0.0142921 0.00765652 0.00121602
0.0142959 0.00683386 -0.000156572
0 0.005 0.01
0.00714848 0.00297315 -8.33586e-05
0 0.005 0
0.0142835 0.000177467 0.00317088
0.0142927 0.0101592 0.00649512
0.00600208 0.00734849 -7.11229e-05
0.0142773 0.00305682 0.0048328
0.00714746 8.85595e-05 -8.33371e-05
0 0 0.00666667
0.00542561 0.00368426 0.00515971
0.00713447 8.73736e-05 0.00991304
0.0142786 0.000177049 0.00649719
0 0 0.005
0.0125667 0.0101478 0.00107663
0.0142972 0.00894258 0.00106234
0.0142804 0.000176987 0.00483358
0.0142937 0.00517063 -0.00015562
0.00174002 0.00124198 -2.17365e-05
0 0.00122008 0.00122008
0 0.00333333 0.01
0 0.00666667 0.01
0.0125666 0.00892764 -0.000142646
0.0142973 0.0101589 0.00316869
0.00602722 0.0100724 0.00332449
0.0142841 0.00683319 0.00982189
0 0.00333333 0
0 0.00122008 0.00877992
0.00173706 2.14169e-05 0.00875879
0.00173696 0.00124159 0.00997827
0.012555 0.0101458 0.00862893
0.00173832 0.00880147 0.00997823
0 0.00877992 0.00877992
0.0142866 0.0089409 0.00860493
0.00954548 0.0101138 -0.000112102
0.0142874 0.00139704 0.0010624
0.00173908 0.0100217 0.0087583
0.0125525 0.00892501 0.00984871
0.0142818 0.00516907 0.00982239
0 0 0.00333333
0.0095326 0.000116857 -0.000109916
0.0125533 0.000152862 0.00107689
0.00172741 2.16857e-05 0.00119037
0 0.00877992 0.00122008
0.00173984 0.00880225 -2.19821e-05
0.00172798 0.0100217 0.00118939
0.0142767 0.00139574 0.00860549
0.0125426 0.00137272 0.00984943
0.00951724 0.00011581 0.00988521
0.0125574 0.00137422 -0.000142366
0.0125421 0.000151873 0.00863016
0.0142927 0.00350661 -0.000155424
0.00475939 0.0100567 0.00994049
0.0035131 0.0100428 0.00131236
0.00952984 0.0101121 0.00988455
0.0142795 0.00350437 0.00982207
0 0.01 0.005
0.00374999 0.00853384 -4.53545e-05
0.0142943 0.010159 0.0048329
0 0.01 0.00333333
0 0.00166667 0
0.0142882 0.000177403 0.00150786
0 0.00166667 0.01
0 0.00833333 0
0.0143006 0.00849828 -0.000157524
0.0142786 0.000176818 0.00816096
0.0143022 0.0101608 0.00150772
0.0142926 0.0101592 0.00815955
0.00237683 0.0100287 0.00997025
0 0.01 0.00833333
0.0119323 0.0101405 -0.000136671
0.0119189 0.00014611 -0.000135953
0.011904 0.000144754 0.00985759
0.0119171 0.0101379 0.00985672
0 0 0.00833333
0.0142882 0.00849458 0.00982286
0.00237791 3.01688e-05 -2.89442e-05
0 0 0.00166667
0.0047685 0.0100578 -5.73702e-05
0.0142793 0.00184221 0.00982328
0.014293 0.00184409 -0.000156208
0.00237323 2.94834e-05 0.00997077
0.00237958 0.0100294 -2.96385e-05
0 0.01 0.00166667
0.0142943 0.0101606 0.00982418
0 0 0.01
0.014308 0.0101618 -0.000158527
0.0142807 0.000175843 0.00982573
0 0.01 0.01
0.0142949 0.000176902 -0.00015754
0 0.01 0
0 0 0
0.00715751 0.0100859 -8.53657e-05
0.00475244 5.89322e-05 0.00994108
0 0.00833333 0.01

CELLS 343 686
1 0
1 1
1 2
1 3
1 4
1 5
1 6
1 7
1 8
1 9
1 10
1 11
1 12
1 13
1 14
1 15
1 16
1 17
1 18
1 19
1 20
1 21
1 22
1 23
1 24
1 25
1 26
1 27
1 28
1 29
1 30
1 31
1 32
1 33
1 34
1 35
1 36
1 37
1 38
1 39
1 40
1 41
1 42
1 43
1 44
1 45
1 46
1 47
1 48
1 49
1 50
1 51
1 52
1 53
1 54
1 55
1 56
1 57
1 58
1 59
1 60
1 61
1 62
1 63
1 64
1 65
1 66
1 67
1 68
1 69
1 70
1 71
1 72
1 73
1 74
1 75
1 76
1 77
1 78
1 79
1 80
1 81
1 82
1 83
1 84
1 85
1 86
1 87
1 88
1 89
1 90
1 91
1 92
1 93
1 94
1 95
1 96
1 97
1 98
1 99
1 100
1 101
1 102
1 103
1 104
1 105
1 106
1 107
1 108
1 109
1 110
1 111
1 112
1 113
1 114
1 115
1 116
1 117
1 118
1 119
1 120
1 121
1 122
1 123
1 124
1 125
1 126
1 127
1 128
1 129
1 130
1 131
1 132
1 133
1 134
1 135
1 136
1 137
1 138
1 139
1 140
1 141
1 142
1 143
1 144
1 145
1 146
1 147
1 148
1 149
1 150
1 151
1 152
1 153
1 154
1 155
1 156
1 157
1 158
1 159
1 160
1 161
1 162
1 163
1 164
1 165
1 166
1 167
1 168
1 169
1 170
1 171
1 172
1 173
1 174
1 175
1 176
1 177
1 178
1 179
1 180
1 181
1 182
1 183
1 184
1 185
1 186
1 187
1 188
1 189
1 190
1 191
1 192
1 193
1 194
1 195
1 196
1 197
1 198
1 199
1 200
1 201
1 202
1 203
1 204
1 205
1 206
1 207
1 208
1 209
1 210
1 211
1 212
1 213
1 214
1 215
1 216
1 217
1 218
1 219
1 220
1 221
1 222
1 223
1 224
1 225
1 226
1 227
1 228
1 229
1 230
1 231
1 232
1 233
1 234
1 235
1 236
1 237
1 238
1 239
1 240
1 241
1 242
1 243
1 244
1 245
1 246
1 247
1 248
1 249
1 250
1 251
1 252
1 253
1 254
1 255
1 256
1 257
1 258
1 259
1 260
1 261
1 262
1 263
1 264
1 265
1 266
1 267
1 268
1 269
1 270
1 271
1 272
1 273
1 274
1 275
1 276
1 277
1 278
1 279
1 280
1 281
1 282
1 283
1 284
1 285
1 286
1 287
1 288
1 289
1 290
1 291
1 292
1 293
1 294
1 295
1 296
1 297
1 298
1 299
1 300
1 301
1 302
1 303
1 304
1 305
1 306
1 307
1 308
1 309
1 310
1 311
1 312
1 313
1 314
1 315
1 316
1 317
1 318
1 319
1 320
1 321
1 322
1 323
1 324
1 325
1 326
1 327
1 328
1 329
1 330
1 331
1 332
1 333
1 334
1 335
1 336
1 337
1 338
1 339
1 340
1 341
1 342

CELL_TYPES 343
1
1
1
1
1
1
1
1
1
1
1
1
1
1
1
1
1
1
1
1
1
1
1
1
1
1
1
1
1
1
1
1
1
1
1
1
1
1
1
1
1
1
1
1
1
1
1
1
1
1
1
1
1
1
1
1
1
1
1
1
1
1
1
1
1
1
1
1
1
1
1
1
1
1
1
1
1
1
1
1
1
1
1
1
1
1
1
1
1
1
1
1
1
1
1
1
1
1
1
1
1
1
1
1
1
1
1
1
1
1
1
1
1
1
1
1
1
1
1
1
1
1
1
1
1
1
1
1
1
1
1
1
1
1
1
1
1
1
1
1
1
1
1
1
1
1
1
1
1
1
1
1
1
1
1
1
1
1
1
1
1
1
1
1
1
1
1
1
1
1
1
1
1
1
1
1
1
1
1
1
1
1
1
1
1
1
1
1
1
1
1
1
1
1
1
1
1
1
1
1
1
1
1
1
1
1
1
1
1
1
1
1
1
1
1
1
1
1
1
1
1
1
1
1
1
1
1
1
1
1
1
1
1
1
1
1
1
1
1
1
1
1
1
1
1
1
1
1
1
1
1
1
1
1
1
1
1
1
1
1
1
1
1
1
1
1
1
1
1
1
1
1
1
1
1
1
1
1
1
1
1
1
1
1
1
1
1
1
1
1
1
1
1
1
1
1
1
1
1
1
1
1
1
1
1
1
1
1
1
1
1
1
1
1
1
1
1
1
1
1
1
1
1
1
1
1
1
1
1
1
1
1
1
1
1
1
1
1
1
1
1
1
1

POINT_DATA 343
FIELD FieldData 8

NodeID_(#) 1 343 int
0
1
2
3
4
5
6
7
8
9
10
11
12
13
14
15
16
17
18
19
20
21
22
23
24
25
26
27
28
29
30
31
32
33
34
35
36
37
38
39
40
41
42
43
44
45
46
47
48
49
50
51
52
53
54
55
56
57
58
59
60
61
62
63
64
65
66
67
68
69
70
71
72
73
74
75
76
77
78
79
80
81
82
83
84
85
86
87
88
89
90
91
92
93
94
95
96
97
98
99
100
101
102
103
104
105
106
107
108
109
110
111
112
113
114
115
116
117
118
119
120
121
122
123
124
125
126
127
128
129
130
131
132
133
134
135
136
137
138
139
140
141
142
143
144
145
146
147
148
149
150
151
152
153
154
155
156
157
158
159
160
161
162
163
164
165
166
167
168
169
170
171
172
173
174
175
176
177
178
179
180
181
182
183
184
185
186
187
188
189
190
191
192
193
194
195
196
197
198
199
200
201
202
203
204
205
206
207
208
209
210
211
212
213
214
215
216
217
218
219
220
221
222
223
224
225
226
227
228
229
230
231
232
233
234
235
236
237
238
239
240
241
242
243
244
245
246
247
248
249
250
251
252
253
254
255
256
257
258
259
260
261
262
263
264
265
266
267
268
269
270
271
272
273
274
275
276
277
278
279
280
281
282
283
284
285
286
287
288
289
290
291
292
293
294
295
296
297
298
299
300
301
302
303
304
305
306
307
308
309
310
311
312
313
314
315
316
317
318
319
320
321
322
323
324
325
326
327
328
329
330
331
332
333
334
335
336
337
338
339
340
341
342

Component_(#) 1 343 int
0
0
0
0
0
0
0
0
0
0
0
0
0
0
0
0
0
0
0
0
0
0
0
0
0
0
0
0
0
0
0
0
0
0
0
0
0
0
0
0
0
0
0
0
0
0
0
0
0
0
0
0
0
0
0
0
0
0
0
0
0
0
0
0
0
0
0
0
0
0
0
0
0
0
0
0
0
0
0
0
0
0
0
0
0
0
0
0
0
0
0
0
0
0
0
0
0
0
0
0
0
0
0
0
0
0
0
0
0
0
0
0
0
0
0
0
0
0
0
0
0
0
0
0
0
0
0
0
0
0
0
0
0
0
0
0
0
0
0
0
0
0
0
0
0
0
0
0
0
0
0
0
0
0
0
0
0
0
0
0
0
0
0
0
0
0
0
0
0
0
0
0
0
0
0
0
0
0
0
0
0
0
0
0
0
0
0
0
0
0
0
0
0
0
0
0
0
0
0
0
0
0
0
0
0
0
0
0
0
0
0
0
0
0
0
0
0
0
0
0
0
0
0
0
0
0
0
0
0
0
0
0
0
0
0
0
0
0
0
0
0
0
0
0
0
0
0
0
0
0
0
0
0
0
0
0
0
0
0
0
0
0
0
0
0
0
0
0
0
0
0
0
0
0
0
0
0
0
0
0
0
0
0
0
0
0
0
0
0
0
0
0
0
0
0
0
0
0
0
0
0
0
0
0
0
0
0
0
0
0
0
0
0
0
0
0
0
0
0
0
0
0
0
0
0
0
0
0
0
0
0
0
0
0
0
0
0
0
0
0
0
0
0

NodalMass_(kg) 1 343 double
3.15563e-06
1.41304e-05
2.20912e-06
1.71484e-05
8.42e-06
9.09306e-06
1.01179e-05
7.52198e-06
6.81096e-06
5.58223e-06
3.10888e-06
1.07575e-05
4.87011e-06
1.64955e-05
3.0246e-06
8.05984e-06
6.703e-06
1.0877e-05
4.18978e-06
8.16106e-06
6.14143e-06
1.17902e-05
2.23114e-06
4.25176e-06
1.09915e-05
7.41467e-06
4.21871e-06
3.92484e-06
3.08766e-06
1.31268e-05
7.72627e-06
1.65404e-05
1.19037e-05
7.97564e-06
3.81683e-06
1.11001e-05
3.81317e-06
1.39137e-05
6.37414e-06
8.00975e-06
7.6712e-06
1.21135e-05
1.6399e-05
2.78633e-06
8.93599e-06
2.58087e-06
7.57362e-06
4.23241e-06
1.31286e-05
3.80168e-06
2.7746e-06
7.16776e-06
1.21307e-05
5.11765e-06
8.19728e-06
4.58094e-06
2.79503e-06
3.26126e-06
4.12443e-06
2.11915e-06
3.35177e-06
3.61669e-06
1.56838e-05
7.33679e-06
8.24695e-06
5.00369e-06
2.82625e-06
7.20276e-06
3.26815e-06
4.18751e-06
2.02785e-06
2.42152e-06
3.11835e-06
5.97459e-06
5.87101e-06
4.09374e-06
5.45463e-06
2.28825e-06
4.49759e-06
4.38192e-06
4.50892e-06
4.39234e-06
4.27273e-06
5.32031e-06
1.53201e-06
2.38869e-06
2.02885e-06
4.38798e-06
3.17972e-06
3.14298e-06
4.61567e-06
5.87645e-06
8.18088e-06
2.48341e-06
1.53815e-05
3.49683e-06
7.35227e-06
2.01314e-06
2.0408e-06
7.98183e-06
4.41293e-06
7.1389e-06
1.20123e-06
5.03343e-06
1.61257e-06
4.12601e-06
8.73748e-06
4.37849e-06
7.97173e-06
2.13557e-06
3.38137e-06
9.48623e-06
7.40262e-06
1.80226e-06
2.10222e-06
7.98889e-06
1.87983e-06
7.44814e-06
4.19782e-06
2.37156e-06
4.31705e-06
6.06441e-06
4.30905e-06
2.16843e-06
1.8986e-06
1.81294e-06
3.89762e-06
2.44299e-06
1.65628e-06
8.01374e-06
1.64513e-06
2.3931e-06
3.01363e-06
2.99431e-06
1.36541e-06
1.87293e-06
2.09622e-06
1.94762e-06
1.87618e-06
6.37913e-06
4.58628e-06
2.02767e-06
1.61999e-06
2.41284e-06
3.8865e-06
4.44973e-06
2.29839e-06
1.17349e-05
3.11811e-06
1.354e-06
3.45063e-06
1.81846e-06
2.9382e-06
1.37381e-06
2.41464e-06
2.10451e-06
2.63927e-06
2.14166e-06
1.7943e-06
3.19976e-06
1.36989e-06
2.43489e-06
2.08158e-06
1.3601e-06
2.17203e-06
1.89924e-06
3.16996e-06
2.6119e-06
2.37677e-06
1.60225e-06
1.90684e-06
5.49206e-06
1.87878e-06
3.14313e-06
2.97301e-06
1.18454e-06
1.89263e-06
2.04166e-06
2.73572e-06
2.42405e-06
3.23083e-06
3.19752e-06
3.2142e-06
1.94492e-06
1.61196e-06
1.86876e-06
3.22435e-06
2.1114e-06
2.96917e-06
6.15288e-06
2.3097e-06
2.39729e-06
2.38029e-06
2.64508e-06
1.66557e-06
1.82377e-06
2.06583e-06
5.73271e-06
2.08467e-06
2.18324e-06
2.43522e-06
3.1188e-06
3.17316e-06
2.05447e-06
1.9592e-06
3.05718e-06
6.44327e-06
2.08796e-06
2.72615e-06
2.15709e-06
1.86812e-06
2.0028e-06
2.10999e-06
2.88994e-06
2.3222e-06
2.3979e-06
1.97629e-06
6.4127e-06
2.16225e-06
3.29198e-06
2.10223e-06
2.66566e-06
1.94415e-06
2.91865e-06
2.58116e-06
2.11703e-06
2.09534e-06
1.91719e-06
7.06046e-06
2.25203e-06
2.06378e-06
6.28159e-06
2.12147e-06
2.90924e-06
2.12921e-06
6.4487e-06
1.41701e-06
2.0682e-06
6.58062e-06
2.52584e-06
2.39732e-06
7.42191e-07
2.22368e-06
7.06751e-07
7.00657e-07
8.93749e-07
2.53536e-06
2.26535e-06
1.33607e-06
7.84725e-07
2.32303e-06
6.06694e-07
6.68276e-07
6.84307e-07
2.51242e-06
2.31629e-06
7.8367e-07
6.80839e-07
6.22692e-06
6.7471e-07
6.65305e-07
7.01158e-07
1.8232e-06
1.90695e-06
6.86722e-07
7.04792e-07
1.86445e-06
2.28572e-06
6.8045e-07
7.16005e-07
1.82373e-06
6.01079e-07
2.02791e-06
7.4579e-07
5.74423e-07
1.80052e-06
1.454e-06
2.2702e-06
1.80636e-06
2.15356e-06
1.79089e-06
1.79456e-06
6.8231e-07
2.24737e-06
1.45239e-06
1.79556e-06
6.97875e-07
6.24265e-07
6.62717e-07
1.44627e-06
1.40138e-06
2.15258e-06
1.82851e-06
1.3994e-06
1.43932e-06
2.19226e-06
6.97732e-07
1.77726e-06
1.79162e-06
6.54258e-07
7.3397e-07
2.34895e-06
7.10392e-07
6.56982e-07
6.26314e-07
2.18926e-06
6.12493e-07
6.03901e-07
5.92831e-07
5.12031e-07
5.11667e-07
4.9467e-07
4.97016e-07
4.96269e-07
5.33079e-07
4.94191e-07
4.97855e-07
4.86862e-07
4.90626e-07
4.94649e-07
4.94954e-07
4.91922e-07
4.89615e-07
4.96354e-07
4.95189e-07
4.82188e-07
1.10854e-06
5.3299e-07
5.44763e-07
5.36655e-07
5.15417e-07
5.01772e-07
5.53774e-07
5.53774e-07
5.53774e-07
5.53774e-07
5.53774e-07
5.53774e-07
5.50785e-07
5.50785e-07
7.45291e-07
7.11668e-07
4.9897e-07

NodalForce_(N) 3 343 double
-1.9732e-06 2.47486e-08 3.83259e-08
-1.68056e-05 7.73191e-07 -3.31715e-07
0.000548277 0.000120498 0.000573349
-1.43704e-05 9.89172e-07 -2.53802e-07
-1.50852e-05 6.76077e-06 -3.95594e-06
-1.69592e-05 6.37257e-06 -4.60065e-06
-3.64886e-05 1.61802e-05 -1.2411e-05
-2.42189e-05 7.80256e-06 -5.83427e-06
-1.58717e-05 9.28465e-06 -6.79679e-06
-1.30023e-05 3.41251e-06 -2.39319e-06
-1.60061e-06 2.08486e-06 -1.37308e-06
-1.30849e-05 9.69773e-06 -6.51849e-06
-2.5326e-06 3.39447e-06 -1.81098e-06
-9.30263e-06 8.81005e-07 -5.58301e-07
-2.42664e-06 1.73629e-06 -1.45975e-06
-2.65667e-05 1.03655e-05 -8.32503e-06
-2.24655e-05 7.26586e-06 -5.48828e-06
-8.86966e-06 9.13329e-07 -3.92738e-07
0.000740903 0.000744191 6.94209e-05
-5.70317e-06 4.82374e-08 1.06301e-07
-1.96201e-05 8.45737e-06 -6.03578e-06
-3.38643e-05 2.13515e-05 -1.51328e-05
0.00174262 -0.000611078 0.000303747
-8.64847e-06 2.69381e-06 -1.69286e-06
-2.42136e-05 8.99524e-06 -6.54858e-06
-1.55993e-05 2.96725e-06 -2.8474e-06
-1.6272e-06 1.08533e-08 -1.84681e-08
-5.81351e-06 2.51791e-06 -1.66349e-06
-5.95666e-06 3.00527e-07 -4.11435e-07
-1.66101e-05 1.66308e-07 -3.79704e-07
-2.03007e-05 2.41941e-06 -3.10507e-06
-6.73816e-05 2.94468e-05 -2.37587e-05
-3.60453e-05 2.08621e-05 -1.66866e-05
-3.35653e-05 1.52802e-05 -1.20151e-05
-2.48104e-05 1.01911e-05 -7.86051e-06
-5.00892e-05 1.75127e-05 -1.32918e-05
-2.30648e-05 7.98509e-06 -5.95079e-06
-7.80668e-05 2.42366e-05 -1.97312e-05
-7.37047e-06 1.95087e-06 -1.21955e-06
-1.03692e-05 3.94238e-06 -3.74752e-06
-8.16465e-06 3.80109e-06 -1.58782e-06
-3.00998e-05 8.17396e-06 -6.80693e-06
-1.56017e-05 9.01909e-07 -3.19712e-07
-4.99583e-06 5.79715e-07 -2.54691e-07
-2.06989e-05 3.61212e-06 -2.03101e-06
0.00123729 0.000143641 -0.000371338
-6.58027e-06 2.76632e-07 -7.36134e-08
0.000214757 0.000715732 -0.000656553
-1.24056e-05 8.56241e-07 -6.21784e-07
-1.78424e-06 9.79132e-08 3.3988e-09
-8.22141e-06 3.99109e-06 -3.43581e-06
-1.76217e-05 7.04989e-06 -6.33012e-06
-1.39678e-05 2.37201e-07 -2.48e-07
-7.75752e-06 7.12751e-07 -5.11575e-07
-6.05931e-06 1.77332e-07 -6.25549e-08
-2.01773e-05 1.21614e-05 -9.64904e-06
0.00113827 -0.000238666 0.000117617
-3.31062e-06 8.44666e-08 -1.78794e-08
0.00205362 -0.0005966 0.000696504
-1.09569e-05 5.61781e-06 -4.44832e-06
-2.13279e-06 6.59912e-07 -7.03702e-07
-1.46278e-05 1.0181e-05 -7.48545e-06
-5.83567e-05 3.0495e-05 -2.22337e-05
-2.85188e-05 1.46693e-05 -1.10643e-05
-1.00516e-05 3.77081e-06 -1.54661e-06
-4.68265e-06 -7.1808e-08 5.71607e-09
-1.25333e-06 8.45227e-07 -2.60565e-07
-1.41401e-05 7.34837e-06 -6.28162e-06
-1.95374e-05 8.63794e-06 -6.70956e-06
-1.16991e-05 9.31442e-06 -6.55434e-06
-3.90044e-06 5.50795e-07 -4.91169e-07
-8.55596e-07 6.0823e-07 -4.34873e-07
-2.35651e-06 9.29876e-07 -2.95854e-07
-1.09223e-05 3.20295e-06 -2.98664e-06
-8.13665e-06 1.22985e-06 -6.83187e-07
0.00184556 -0.000237289 -0.00055849
-1.1936e-05 3.39181e-06 -2.36571e-06
-1.84136e-06 9.16632e-09 1.06406e-08
-1.16483e-05 4.51876e-06 -3.85917e-06
-1.50876e-05 4.7695e-06 -3.9883e-06
-1.08477e-05 2.44378e-06 -2.00529e-06
-7.76792e-06 2.25987e-06 -1.83044e-06
-2.53965e-05 1.1388e-05 -8.84881e-06
-9.7567e-06 8.12423e-07 -6.96059e-07
0.00133618 0.000195475 0.000312008
-2.26137e-06 -6.946e-08 3.85161e-08
0.00127545 -0.000308241 -0.000162064
0.00126752 -0.000275889 -0.000475596
0.00105187 0.000844846 -0.000535684
-5.11987e-06 3.72922e-07 -3.84671e-07
-2.32224e-06 5.69021e-08 -1.16915e-08
-1.48079e-05 3.87637e-06 -3.02044e-06
-1.20343e-05 1.82951e-06 -2.3433e-06
-3.7985e-06 3.69792e-06 -2.84306e-06
-3.29971e-05 2.99787e-05 -2.128e-05
-8.24199e-06 5.5344e-06 -3.63752e-06
-1.66299e-05 8.56004e-06 -5.49159e-06
-9.52516e-06 5.50834e-06 -4.19152e-06
0.00192665 0.000915491 2.02272e-06
-2.87253e-05 9.15278e-06 -6.58946e-06
-1.24659e-05 5.00571e-06 -3.60451e-06
-2.26285e-05 7.56917e-06 -6.19962e-06
-2.5128e-06 3.56939e-07 -1.83704e-07
-2.81746e-05 1.06292e-05 -7.86702e-06
-2.03712e-06 3.79733e-07 -2.19394e-07
-9.19764e-06 4.98759e-06 -3.58395e-06
-3.67766e-05 9.61887e-06 -7.08054e-06
-1.03185e-05 9.73288e-06 -6.7467e-06
-1.37376e-05 9.76786e-06 -6.12727e-06
-8.01208e-07 -6.87695e-09 -2.69897e-09
-1.78131e-05 4.64082e-06 -4.17642e-06
-3.4432e-05 6.65608e-06 -5.73091e-06
-2.85208e-05 6.57333e-06 -6.24797e-06
0.000441045 0.000378868 -0.000620122
-9.37296e-06 5.91529e-06 -4.38258e-06
-5.4197e-06 2.3283e-07 -1.62654e-07
-1.27801e-05 4.99259e-06 -3.96206e-06
-3.51817e-05 1.43637e-05 -1.11168e-05
-2.07716e-05 4.54659e-06 -3.66986e-06
-3.37411e-06 3.82572e-06 -2.34078e-06
-1.55743e-05 1.2177e-05 -8.86303e-06
-2.02871e-05 1.20403e-05 -9.14385e-06
-1.69417e-06 1.11292e-07 3.31864e-09
0.00147643 9.44827e-05 0.000472541
-5.92566e-07 7.16994e-08 4.41296e-08
-9.8192e-06 4.78057e-06 -3.74522e-06
-1.85442e-05 3.64015e-06 -3.41148e-06
0.00183168 0.000295632 -0.0010059
-8.79854e-07 3.57875e-08 -1.76531e-08
-2.24312e-05 3.70286e-06 -2.16411e-06
-8.52083e-06 3.53471e-06 -2.68794e-06
-1.3265e-05 6.38944e-06 -5.04684e-06
-2.53984e-06 3.4031e-06 -2.44209e-06
-6.24809e-06 4.45486e-06 -3.74146e-06
0.00174399 -0.00021191 0.000375007
-1.46442e-06 -2.19141e-08 -6.92396e-10
0.00155091 -0.000229311 0.00050223
-6.31434e-06 4.37887e-06 -3.11014e-06
-1.17923e-05 4.92923e-06 -3.92213e-06
-3.39386e-05 1.24232e-05 -9.94188e-06
-1.44785e-05 9.16086e-06 -7.4823e-06
-2.77508e-06 3.67109e-06 -2.60889e-06
-3.14084e-06 3.69671e-06 -2.47264e-06
-7.59784e-06 6.8529e-06 -4.95031e-06
0.000965415 0.000587979 -0.000794391
-3.43915e-06 5.56538e-06 -3.44395e-06
-2.67845e-06 1.56017e-06 -7.20247e-07
-5.29389e-05 2.06923e-05 -1.61943e-05
-1.68854e-05 8.38813e-06 -6.47077e-06
-3.68603e-06 7.65813e-07 -4.28428e-07
-7.45491e-06 6.87912e-07 -3.49802e-07
-8.00118e-07 7.71435e-09 1.09845e-08
0.00222809 0.000482991 3.67856e-05
-6.61078e-06 3.63115e-06 -2.84194e-06
-1.27816e-05 3.52687e-06 -2.54164e-06
-7.48775e-06 3.51579e-06 -2.88537e-06
0.00155264 -6.22557e-05 -0.000662308
0.00117017 0.000749604 0.0016654
-4.31255e-06 2.30362e-06 -2.08385e-06
-1.22535e-05 8.70541e-06 -6.59624e-06
-9.6887e-07 9.57385e-07 -3.86295e-07
-3.4587e-06 4.08296e-07 -3.00101e-07
-7.68198e-06 3.671e-06 -2.72944e-06
-2.93917e-06 1.20734e-06 -1.17764e-06
-1.06485e-05 5.77532e-06 -4.59059e-06
-7.15981e-06 3.92416e-06 -3.19933e-06
-1.22039e-05 4.47454e-06 -3.67158e-06
-6.12362e-06 4.57373e-07 -7.08956e-07
-1.42213e-05 3.73769e-06 -3.29384e-06
-9.69859e-06 2.68049e-06 -2.14294e-06
-8.16644e-06 1.65423e-06 -1.64251e-06
-2.33358e-05 7.15061e-06 -5.73194e-06
-5.62322e-06 3.4241e-06 -2.43233e-06
-2.6129e-06 5.17982e-07 -7.13763e-07
-4.01146e-06 1.23409e-06 -1.55002e-06
-1.28357e-06 5.46941e-07 -6.1973e-07
-8.1032e-06 3.24433e-06 -2.57301e-06
-5.6633e-07 5.57629e-07 -1.53192e-07
-1.55395e-05 7.25236e-06 -5.64529e-06
0.00199028 -1.5591e-05 0.000310541
-1.21117e-05 8.66056e-06 -6.74558e-06
-1.63743e-05 6.52584e-06 -5.30363e-06
-1.65658e-05 8.8668e-06 -6.69373e-06
0.00155169 -0.000308688 -0.000233211
-1.64466e-06 2.98206e-07 -2.58091e-07
-2.33795e-06 3.5134e-06 -2.26256e-06
-6.78225e-06 6.81922e-06 -5.12057e-06
-5.89054e-06 4.62129e-06 -3.63241e-06
-1.11127e-05 2.96599e-06 -1.84975e-06
-1.8618e-05 4.35904e-06 -2.933e-06
-9.42814e-06 2.28309e-06 -1.40974e-06
-1.04443e-05 3.52535e-06 -2.46826e-06
-2.5425e-06 2.90166e-07 -5.99968e-07
-6.98603e-06 1.06017e-06 -1.22956e-06
-1.11665e-06 5.54758e-07 -1.58792e-07
-1.10817e-06 7.01129e-07 -2.23915e-07
-1.18794e-05 5.56815e-06 -4.35353e-06
-1.53515e-05 1.96368e-06 -1.8675e-06
-1.04119e-05 5.58794e-06 -4.3178e-06
-9.91919e-06 2.59327e-06 -2.40877e-06
-1.5838e-05 5.12943e-06 -3.93178e-06
0.00180881 -0.000509182 -0.000190041
-2.71895e-06 -7.52822e-09 1.65493e-08
0.00146723 -0.000564526 0.0001915
-6.89461e-06 9.92996e-07 -9.61883e-07
-1.06429e-05 1.72465e-06 -1.27934e-06
-1.78453e-05 3.80548e-06 -3.4746e-06
-9.37625e-06 3.07243e-06 -2.62365e-06
-4.31479e-06 3.07801e-06 -1.69876e-06
-2.65598e-06 2.46154e-06 -1.27024e-06
-1.69155e-06 4.50169e-09 4.18025e-08
-9.30565e-06 4.26858e-06 -3.32825e-06
-8.96519e-06 5.62332e-06 -4.37199e-06
-1.42354e-05 4.38999e-06 -3.07523e-06
-3.04012e-06 2.24227e-06 -1.93044e-06
-1.92714e-06 5.01932e-07 -2.42988e-07
-6.35713e-06 5.50876e-06 -4.10689e-06
-7.10832e-06 5.54173e-07 -4.02725e-07
-7.76572e-06 2.02519e-06 -1.92298e-06
-1.84347e-05 6.20488e-06 -5.32878e-06
-7.11623e-06 1.94812e-06 -1.36999e-06
-1.21214e-05 7.12365e-06 -5.51863e-06
-8.20659e-06 1.75678e-06 -1.17951e-06
-5.69863e-06 4.77918e-06 -3.09915e-06
-5.23245e-06 5.18035e-07 -2.14484e-07
0.00161272 0.000204876 0.000789699
-3.63879e-06 1.07204e-06 -1.15123e-06
-1.74689e-06 2.06214e-06 -1.10569e-06
-1.2918e-05 1.77503e-06 -1.15856e-06
-6.77415e-06 1.29162e-06 -6.53651e-07
-1.93013e-06 1.44602e-06 -5.58555e-07
-1.01302e-05 1.61139e-06 -1.22225e-06
0.0023547 -0.00124866 6.96334e-05
0.00181322 0.000573567 -0.00102797
-7.35748e-06 1.16818e-06 -1.44602e-06
-1.87383e-05 3.80053e-06 -2.95889e-06
-2.48387e-06 1.47649e-06 -8.89699e-07
-1.08397e-05 5.46124e-06 -4.26726e-06
-1.27863e-05 1.65371e-06 -1.08505e-06
-4.372e-06 2.15084e-06 -2.16698e-06
-1.47635e-05 6.35532e-06 -5.04337e-06
0.0009254 0.000705045 7.53237e-05
-1.4086e-05 4.44862e-06 -3.81279e-06
-9.75308e-07 3.7158e-07 -2.39829e-07
0.000914854 -4.80186e-05 -0.000956259
-2.27068e-06 7.65527e-07 -6.53954e-07
0.00244764 -0.000928329 8.59066e-05
-1.53905e-05 5.93607e-06 -4.81419e-06
-9.17448e-06 3.51815e-06 -2.92325e-06
0.000682349 -0.00109357 0.000265624
-6.4055e-06 1.69329e-06 -1.46437e-06
0.000770265 0.00114261 -6.69059e-05
-2.54229e-06 1.90362e-06 -1.39018e-06
-4.25933e-06 1.88911e-06 -1.42784e-06
-8.04408e-06 9.83646e-07 -1.2177e-06
-9.92712e-06 6.29224e-06 -4.80256e-06
-1.66563e-06 7.60202e-07 -5.24142e-07
0.000546436 -0.000258301 0.000760403
-9.38599e-06 2.00044e-06 -1.15705e-06
-2.54288e-07 6.47186e-07 -4.16836e-07
-1.94932e-06 1.89812e-06 -1.34979e-06
0.000299681 -0.000597467 0.00100083
-1.26737e-05 3.96852e-06 -3.18466e-06
-1.38565e-05 5.06745e-06 -4.08746e-06
-2.31008e-06 1.95122e-06 -1.41412e-06
-4.44242e-06 1.87309e-06 -1.5338e-06
-1.05232e-06 9.38188e-08 1.77548e-08
0.00114911 0.000744777 -7.41736e-05
0.00053414 -0.000895262 0.000349231
0.000514047 -0.00103502 0.000328013
-1.25075e-05 3.83729e-06 -3.24767e-06
-4.27426e-06 1.63981e-06 -1.25297e-06
-6.52765e-06 1.15125e-06 -5.71221e-07
-3.17267e-06 1.98299e-06 -1.60785e-06
0.00081164 0.000450475 0.00017261
0.000540317 0.000402284 -0.000478017
-3.52857e-07 8.37537e-08 1.94501e-08
-6.62674e-07 6.39667e-08 -7.34618e-09
-8.97598e-06 4.08102e-06 -3.21448e-06
-1.13899e-06 6.81047e-08 -1.39586e-08
0.000818505 -0.000130545 -0.000368915
-9.46425e-06 4.87339e-06 -3.85657e-06
-3.94975e-06 9.09162e-07 -7.61639e-07