# vtk DataFile Version 4.2
vtk output
ASCII
DATASET UNSTRUCTURED_GRID

POINTS 343 double
0.00115667 0.00419619 -8.29485e-07
0.00223735 0.00498504 0.00217337
0 0.00419538 0.00112517
0.00198928 0.00195692 0.00194042
0.00536937 0.00242241 0.00502787
0.0053686 0.0038404 0.00638686
0.00795882 0.00479 0.00499299
0.0064817 0.0048612 0.00369445
0.00712738 0.00330683 0.00689577
0.0051777 0.00499986 0.00499592
0.00434622 0.00113096 0.0099838
0.00548911 0.00209648 0.0078877
0.00435554 8.29228e-06 0.00830528
0.00207346 0.00200524 0.00803138
0.00445292 0.00254367 0.00998333
0.00725199 0.0064527 0.00692724
0.00667854 0.00618877 0.00517717
0.00233119 0.00218826 0.00514362
0 0.00143586 0.00417514
0.00164181 0.00346826 0.00403529
0.00713433 0.0032136 0.00316846
0.0080939 0.0022413 0.00505719
0 0.00270918 0.00154168
0.00433273 0.00144231 8.36309e-06
0.00521056 0.00220312 0.00220395
0.00411352 0.00353439 0.00160775
0.00138683 1.16281e-06 0.00405838
0.00435509 8.97021e-06 0.00169188
0.00272275 0.00695462 3.28211e-06
0.00199657 0.00805511 0.00194329
0.00424252 0.00625254 0.00165002
0.00836686 0.007984 0.00796525
0.00832389 0.00483027 0.00799017
0.00877312 0.00608832 0.00593291
0.0105031 0.00881439 0.00419354
0.00791335 0.00763591 0.00495844
0.0089791 0.00996645 0.00416757
0.00835 0.00796915 0.00203311
0.00365813 0.00304283 0.00695433
0.00460307 0.00367034 0.00831046
0.00403174 0.00161192 0.00596382
0.00519768 0.0076712 0.0076628
0.00204752 0.00801082 0.00798768
0.0029234 0.00999728 0.00712389
0.00405503 0.00840144 0.00595306
0 0.00695361 0.00262895
0.0016952 0.00624118 0.00408652
0 0.0040177 0.00850214
0.00238516 0.00498831 0.00765907
0.00147593 0.00417594 0.00999854
0.00749504 0.00712029 0.00996168
0.00636915 0.00597718 0.00839393
0.0021128 0.00794445 0.00474
0.0031426 0.00694733 0.00646533
0.00163371 0.00608031 0.0059244
0.0104845 0.00579567 0.00827036
0 0.00718191 0.00711644
0.00163426 0.00577523 -5.02905e-07
0 0.00577432 0.00158701
0.0104903 0.00715841 0.00708138
0.00297004 0.00335387 0.0099906
0.0104734 0.00145542 0.00417557
0.00841402 0.00197478 0.00199716
0.00877826 0.00352506 0.00400065
0.00385937 0.00165884 0.00412501
0.0015524 0.0100009 0.00581357
0.00290994 5.16304e-06 0.00712446
0.0063606 0.0041835 0.00835299
0.0104901 0.0072482 0.00419569
0.00893938 2.21151e-05 0.0041679
0.00347285 0.00287661 5.59966e-06
0.00279825 0.00154486 0.00999118
0.00292109 5.87466e-06 0.00282957
0.00497751 0.00520125 0.00754073
0.00326513 0.00315151 0.00316436
0 0.00849157 0.00581511
0.00505007 0.00367988 0.00378561
0.00158557 0.0027101 -5.32801e-07
0.00604548 0.0083167 0.00997008
0.00624058 0.00998489 0.00848107
0.00437565 0.00999355 0.00830512
0.00417244 0.00850086 0.00998298
0.0104974 0.0084583 0.00579447
0.00325275 0.00683778 0.00314807
0 0.00748929 0.00137438
0.00141535 0.00749077 -9.00844e-07
0 0.00287343 0.00335182
0 0.00580816 0.00831736
0 0.00429792 0.00253898
0.0026255 0.00429932 2.98355e-06
0.00147597 0.00582107 0.00999839
0.00537235 0.00647366 0.00639006
0.00372995 0.00651377 0.00822414
0.00724094 0.00263547 0.00996527
0.00836678 0.00197013 0.00800251
0.00725667 1.6342e-05 0.00308921
0.00625236 0.00167432 0.00361565
0.0104775 0.00288254 0.00336134
0 0.00140616 0.00256446
0.00663883 0.0082172 0.00640636
0.00605828 0.00144606 1.64728e-05
0.00628035 0.00355655 0.00161586
0.0032669 0.00999642 0.00582114
0.00897019 0.00996731 0.00581706
0.00265191 0.00140973 3.19962e-06
0.00621662 1.48422e-05 0.00150579
0.00654628 0.00827685 0.00361939
0.00893171 2.20026e-05 0.00581621
0.00644383 0.00168277 0.0063513
0.00144436 0.00256543 0.00999839
0.00744275 0.00716945 2.24765e-05
0.0053735 0.00768471 0.00217537
0.0061881 0.00608963 0.00161422
0 0.00686719 0.00578184
0.0104806 0.00142698 0.00258169
0.00182483 0.00361192 0.00640614
0.0105068 0.00845223 0.00263956
0.00879098 0.00617885 0.00413346
0.00624844 0.00998299 0.00150625
0.0072517 1.72186e-05 0.00690591
0.0104714 0.00145417 0.00579787
0.00876586 0.00357722 0.00604271
0.00154886 1.24623e-06 0.00581362
0 0.0013659 0.00748679
0.00140578 1.37048e-06 0.00752816
0.0104859 0.00684467 0.00576204
0.00607474 0.00848118 1.78455e-05
0 0.0075208 0.00859127
0.00140462 0.00748868 0.00999824
0.0043859 0.00820211 0.00362673
0.0090084 0.00996685 0.00747963
0.0105026 0.00859572 0.00748606
0.00599905 0.00159571 0.00997233
0.00756891 0.00418965 0.00996245
0 0.0057735 0.00666667
0.00140901 0.0100007 0.007528
0 0.00863025 0.00752641
0.0089746 2.32894e-05 0.00252117
0.010494 0.00692929 0.00264481
0.0088494 0.00632881 0.00218059
0.0088997 0.00581522 0.00995325
0.00781006 0.00138597 0.00996101
0.00897016 2.29334e-05 0.00748077
0.0104753 0.00138559 0.00744759
0 0.00143551 0.00581971
0.0062068 1.4344e-05 0.00848216
0.00435824 9.38435e-06 0.00339957
0.00828504 0.0047056 0.00205203
0.0104838 0.00429747 0.00255862
0.00439073 0.00999212 0.00665793
0.00293519 0.00999653 0.0028299
0.0013477 1.46357e-06 0.00241652
0 0.00727418 0.00419576
0.0104816 0.00576258 0.00663602
0.00729481 0.00997701 0.00308831
0.0078528 0.00861929 0.00995889
0 0.00574334 0.00336387
0 0.0043297 0.00416652
0.00716257 0.00578029 0.00996406
0.0104736 0.00303118 0.00688254
0.00436803 9.18901e-06 0.00665779
0.00256356 0.0099974 0.00860613
0.00781817 0.00137976 2.40049e-05
0.00601049 0.00666298 0.00997123
0.0104971 0.00749598 0.00854073
0.00901547 0.00753505 0.00995126
0.00721351 0.00302987 2.13443e-05
0.00348805 0.0057445 5.8366e-06
0.00788751 0.00861062 2.51037e-05
0.00787845 0.00997224 0.00140531
0.00603026 0.00686134 1.72585e-05
0.00727246 0.0063629 0.00304081
0.00783958 1.95569e-05 0.00140525
0.00298237 0.00500119 0.00999052
0.00449145 0.0058352 0.00998126
0.0044876 0.0041694 0.00998196
0.00786804 0.00997475 0.00858109
0.00255229 4.76255e-06 0.00860692
0.0104842 0.00573387 0.00337382
0 0.00302218 0.00691532
0.0104791 0.00402093 0.00845302
0.00890299 0.00402048 3.13895e-05
0.0104867 0.00271902 0.00157238
0 0.00244495 0.00857025
0.00253072 0.00857039 0.00999182
0.00783195 1.89938e-05 0.00858256
0.00886961 0.00263295 0.00995364
0.00925987 0.00419535 0.00995046
0.00590712 0.00998569 0.00582228
0.00538463 0.00757883 0.00502692
0.00588017 0.00998507 0.00421316
0.00728693 0.00997865 0.00690545
0.00312863 0.00691775 0.00998905
0.00432507 0.0043317 9.65e-06
0.00292246 4.65299e-06 0.0044018
0.00325095 5.93041e-06 0.00582155
0.0104935 0.00419593 0.00115963
0.00377476 0.00833511 0.00159162
0.0104775 0.00432795 0.00416516
0.00695889 0.0057689 2.07405e-05
0.00901408 0.00996521 0.00252009
0 0.00848692 0.00262374
0.00139106 0.0100011 0.00405848
0 0.00885053 0.00419359
0.00436848 0.00884503 9.97885e-06
0.00437572 0.0099914 0.00169228
0.00518506 0.00479266 0.00238471
0.00753875 0.00452158 2.34667e-05
0.00585052 1.28138e-05 0.00421521
0.00587758 1.29553e-05 0.00582334
0.00135218 0.0100007 0.00241642
0.00897119 0.00245581 3.11118e-05
0.0104774 0.00451993 0.00718279
0.00744026 0.00997641 0.00499298
0.00596753 0.00336813 0.00997324
0.0025359 5.72216e-06 0.0013564
0.0104789 0.00245844 0.0085202
0.00246637 0.0047926 0.00499783
0.00607562 0.00433247 1.74209e-05
0.00871218 0.00579761 2.99872e-05
0.00570822 0.0099874 0.00720575
0.0104753 0.00432868 0.00581306
0.00563276 0.00998624 0.00277957
0.00740276 1.74915e-05 0.00499426
0.00293595 0.00999711 0.00440184
0 0.00452174 0.00721958
0.00469666 0.00721841 0.00997956
0.00567868 1.25015e-05 0.00720463
0.00372024 0.00507531 0.00359411
0.00441531 0.00999106 0.00500363
0.00439238 9.93311e-06 0.00500433
0.00378972 0.00521841 0.0061704
0 0.005744 0.00499998
0 0.00433013 0.00583333
0.00520279 0.00574337 1.37673e-05
0.00517059 0.00633768 0.00355438
0.00560497 1.2273e-05 0.00278009
0.0104804 0.00573463 0.00498883
0.00381226 0.00640909 0.00484087
0.00597205 0.00500072 0.00997271
0.0104948 0.00576261 0.00161794
0 0.00666667 0
0.00901511 0.00750091 3.15765e-05
0.003454 7.94554e-06 4.86177e-06
0 0.01 0.00666667
0.00521564 0.00998845 0.00997717
0 0.00288419 0.00499914
0.010506 0.00746039 0.00140759
0.0105126 0.00664616 4.06429e-05
0 0.005 0.01
0.00519642 0.00288988 1.29256e-05
0 0.005 0
0.0104854 3.67267e-05 0.00334299
0.0105219 0.00994774 0.00663444
0.00436378 0.00727209 1.0115e-05
0.0104731 0.0028952 0.00498827
0.00519908 1.35791e-05 1.06983e-05
0 0 0.00666667
0.00391995 0.00361924 0.00522242
0.00518925 1.15071e-05 0.00997899
0.0104816 3.61975e-05 0.00663508
0 0 0.005
0.00922845 0.00996202 0.00124601
0.0105193 0.00874169 0.0012543
0.0104814 3.62606e-05 0.004988
0.010507 0.00499422 4.2493e-05
0.00125351 0.00122083 -6.59382e-07
0 0.00122008 0.00122008
0 0.00333333 0.01
0 0.00666667 0.01
0.00922745 0.00875057 3.27541e-05
0.0105252 0.0099461 0.00334053
0.00437939 0.00999113 0.00339875
0.0105039 0.00664828 0.0099344
0 0.00333333 0
0 0.00122008 0.00877992
0.00125284 1.44882e-06 0.00877862
0.00125268 0.00122099 0.00999853
0.00921639 0.00996489 0.0087355
0.00125484 0.00878092 0.00999821
0 0.00877992 0.00877992
0.0105084 0.00874347 0.0087274
0.00698646 0.00997682 1.91414e-05
0.0104891 0.00124371 0.00125248
0.00125615 0.0100001 0.00877879
0.00921014 0.0087525 0.00994882
0.0104964 0.00499432 0.00993526
0 0 0.00333333
0.00695147 1.90417e-05 1.7971e-05
0.00918794 2.57558e-05 0.00124538
0.00124468 1.74957e-06 0.0012109
0 0.00877992 0.00122008
0.00125695 0.00878084 -6.12867e-07
0.00124909 0.0100001 0.00121055
0.0104804 0.00124184 0.00872786
0.00918267 0.00123715 0.00995068
0.00693955 1.69328e-05 0.00996731
0.00919502 0.00123978 3.21801e-05
0.0091785 2.42927e-05 0.00873658
0.0105026 0.00334003 4.27386e-05
0.00346349 0.0099947 0.00998804
0.00254806 0.00999716 0.00135657
0.00697469 0.00997964 0.00996588
0.0104912 0.00334149 0.00993596
0 0.01 0.005
0.00272148 0.00848645 3.28353e-06
0.0105215 0.00994628 0.00499069
0 0.01 0.00333333
0 0.00166667 0
0.010493 3.57994e-05 0.00169405
0 0.00166667 0.01
0 0.00833333 0
0.0105271 0.00829828 4.27296e-05
0.0104854 3.48314e-05 0.00828579
0.0105337 0.00994787 0.00169549
0.010525 0.00994934 0.00828488
0.00172216 0.00999793 0.0099966
0 0.01 0.00833333
0.00876157 0.00996345 2.78966e-05
0.00872114 2.59918e-05 2.72527e-05
0.0087089 2.28964e-05 0.00995514
0.00874582 0.00996754 0.00995313
0 0 0.00833333
0.0105146 0.00830096 0.00993499
0.00171724 4.0504e-06 -8.29514e-08
0 0 0.00166667
0.00347089 0.00999435 5.75718e-06
0.0104898 0.00168482 0.00993685
0.0105013 0.00168726 4.16057e-05
0.00171533 3.00771e-06 0.00999682
0.00172522 0.00999864 4.3859e-07
0 0.01 0.00166667
0.0105297 0.00995228 0.00993709
0 0 0.01
0.0105448 0.00994893 4.06019e-05
0.0104908 3.25343e-05 0.00993925
0 0.01 0.01
0.0105033 3.58589e-05 3.89021e-05
0 0.01 0
0 0 0
0.0052244 0.00998626 1.25015e-05
0.00344812 6.06459e-06 0.00998799
0 0.00833333 0.01

CELLS 343 686
1 0
1 1
1 2
1 3
1 4
1 5
1 6
1 7
1 8
1 9
1 10
1 11
1 12
1 13
1 14
1 15
1 16
1 17
1 18
1 19
1 20
1 21
1 22
1 23
1 24
1 25
1 26
1 27
1 28
1 29
1 30
1 31
1 32
1 33
1 34
1 35
1 36
1 37
1 38
1 39
1 40
1 41
1 42
1 43
1 44
1 45
1 46
1 47
1 48
1 49
1 50
1 51
1 52
1 53
1 54
1 55
1 56
1 57
1 58
1 59
1 60
1 61
1 62
1 63
1 64
1 65
1 66
1 67
1 68
1 69
1 70
1 71
1 72
1 73
1 74
1 75
1 76
1 77
1 78
1 79
1 80
1 81
1 82
1 83
1 84
1 85
1 86
1 87
1 88
1 89
1 90
1 91
1 92
1 93
1 94
1 95
1 96
1 97
1 98
1 99
1 100
1 101
1 102
1 103
1 104
1 105
1 106
1 107
1 108
1 109
1 110
1 111
1 112
1 113
1 114
1 115
1 116
1 117
1 118
1 119
1 120
1 121
1 122
1 123
1 124
1 125
1 126
1 127
1 128
1 129
1 130
1 131
1 132
1 133
1 134
1 135
1 136
1 137
1 138
1 139
1 140
1 141
1 142
1 143
1 144
1 145
1 146
1 147
1 148
1 149
1 150
1 151
1 152
1 153
1 154
1 155
1 156
1 157
1 158
1 159
1 160
1 161
1 162
1 163
1 164
1 165
1 166
1 167
1 168
1 169
1 170
1 171
1 172
1 173
1 174
1 175
1 176
1 177
1 178
1 179
1 180
1 181
1 182
1 183
1 184
1 185
1 186
1 187
1 188
1 189
1 190
1 191
1 192
1 193
1 194
1 195
1 196
1 197
1 198
1 199
1 200
1 201
1 202
1 203
1 204
1 205
1 206
1 207
1 208
1 209
1 210
1 211
1 212
1 213
1 214
1 215
1 216
1 217
1 218
1 219
1 220
1 221
1 222
1 223
1 224
1 225
1 226
1 227
1 228
1 229
1 230
1 231
1 232
1 233
1 234
1 235
1 236
1 237
1 238
1 239
1 240
1 241
1 242
1 243
1 244
1 245
1 246
1 247
1 248
1 249
1 250
1 251
1 252
1 253
1 254
1 255
1 256
1 257
1 258
1 259
1 260
1 261
1 262
1 263
1 264
1 265
1 266
1 267
1 268
1 269
1 270
1 271
1 272
1 273
1 274
1 275
1 276
1 277
1 278
1 279
1 280
1 281
1 282
1 283
1 284
1 285
1 286
1 287
1 288
1 289
1 290
1 291
1 292
1 293
1 294
1 295
1 296
1 297
1 298
1 299
1 300
1 301
1 302
1 303
1 304
1 305
1 306
1 307
1 308
1 309
1 310
1 311
1 312
1 313
1 314
1 315
1 316
1 317
1 318
1 319
1 320
1 321
1 322
1 323
1 324
1 325
1 326
1 327
1 328
1 329
1 330
1 331
1 332
1 333
1 334
1 335
1 336
1 337
1 338
1 339
1 340
1 341
1 342

CELL_TYPES 343
1
1
1
1
1
1
1
1
1
1
1
1
1
1
1
1
1
1
1
1
1
1
1
1
1
1
1
1
1
1
1
1
1
1
1
1
1
1
1
1
1
1
1
1
1
1
1
1
1
1
1
1
1
1
1
1
1
1
1
1
1
1
1
1
1
1
1
1
1
1
1
1
1
1
1
1
1
1
1
1
1
1
1
1
1
1
1
1
1
1
1
1
1
1
1
1
1
1
1
1
1
1
1
1
1
1
1
1
1
1
1
1
1
1
1
1
1
1
1
1
1
1
1
1
1
1
1
1
1
1
1
1
1
1
1
1
1
1
1
1
1
1
1
1
1
1
1
1
1
1
1
1
1
1
1
1
1
1
1
1
1
1
1
1
1
1
1
1
1
1
1
1
1
1
1
1
1
1
1
1
1
1
1
1
1
1
1
1
1
1
1
1
1
1
1
1
1
1
1
1
1
1
1
1
1
1
1
1
1
1
1
1
1
1
1
1
1
1
1
1
1
1
1
1
1
1
1
1
1
1
1
1
1
1
1
1
1
1
1
1
1
1
1
1
1
1
1
1
1
1
1
1
1
1
1
1
1
1
1
1
1
1
1
1
1
1
1
1
1
1
1
1
1
1
1
1
1
1
1
1
1
1
1
1
1
1
1
1
1
1
1
1
1
1
1
1
1
1
1
1
1
1
1
1
1
1
1
1
1
1
1
1
1
1
1
1
1
1
1
1
1
1
1
1
1
1
1
1
1
1
1
1
1
1
1
1
1
1
1
1
1
1
1

POINT_DATA 343
FIELD FieldData 8

NodeID_(#) 1 343 int
0
1
2
3
4
5
6
7
8
9
10
11
12
13
14
15
16
17
18
19
20
21
22
23
24
25
26
27
28
29
30
31
32
33
34
35
36
37
38
39
40
41
42
43
44
45
46
47
48
49
50
51
52
53
54
55
56
57
58
59
60
61
62
63
64
65
66
67
68
69
70
71
72
73
74
75
76
77
78
79
80
81
82
83
84
85
86
87
88
89
90
91
92
93
94
95
96
97
98
99
100
101
102
103
104
105
106
107
108
109
110
111
112
113
114
115
116
117
118
119
120
121
122
123
124
125
126
127
128
129
130
131
132
133
134
135
136
137
138
139
140
141
142
143
144
145
146
147
148
149
150
151
152
153
154
155
156
157
158
159
160
161
162
163
164
165
166
167
168
169
170
171
172
173
174
175
176
177
178
179
180
181
182
183
184
185
186
187
188
189
190
191
192
193
194
195
196
197
198
199
200
201
202
203
204
205
206
207
208
209
210
211
212
213
214
215
216
217
218
219
220
221
222
223
224
225
226
227
228
229
230
231
232
233
234
235
236
237
238
239
240
241
242
243
244
245
246
247
248
249
250
251
252
253
254
255
256
257
258
259
260
261
262
263
264
265
266
267
268
269
270
271
272
273
274
275
276
277
278
279
280
281
282
283
284
285
286
287
288
289
290
291
292
293
294
295
296
297
298
299
300
301
302
303
304
305
306
307
308
309
310
311
312
313
314
315
316
317
318
319
320
321
322
323
324
325
326
327
328
329
330
331
332
333
334
335
336
337
338
339
340
341
342

Component_(#) 1 343 int
0
0
0
0
0
0
0
0
0
0
0
0
0
0
0
0
0
0
0
0
0
0
0
0
0
0
0
0
0
0
0
0
0
0
0
0
0
0
0
0
0
0
0
0
0
0
0
0
0
0
0
0
0
0
0
0
0
0
0
0
0
0
0
0
0
0
0
0
0
0
0
0
0
0
0
0
0
0
0
0
0
0
0
0
0
0
0
0
0
0
0
0
0
0
0
0
0
0
0
0
0
0
0
0
0
0
0
0
0
0
0
0
0
0
0
0
0
0
0
0
0
0
0
0
0
0
0
0
0
0
0
0
0
0
0
0
0
0
0
0
0
0
0
0
0
0
0
0
0
0
0
0
0
0
0
0
0
0
0
0
0
0
0
0
0
0
0
0
0
0
0
0
0
0
0
0
0
0
0
0
0
0
0
0
0
0
0
0
0
0
0
0
0
0
0
0
0
0
0
0
0
0
0
0
0
0
0
0
0
0
0
0
0
0
0
0
0
0
0
0
0
0
0
0
0
0
0
0
0
0
0
0
0
0
0
0
0
0
0
0
0
0
0
0
0
0
0
0
0
0
0
0
0
0
0
0
0
0
0
0
0
0
0
0
0
0
0
0
0
0
0
0
0
0
0
0
0
0
0
0
0
0
0
0
0
0
0
0
0
0
0
0
0
0
0
0
0
0
0
0
0
0
0
0
0
0
0
0
0
0
0
0
0
0
0
0
0
0
0
0
0
0
0
0
0
0
0
0
0
0
0
0
0
0
0
0
0
0
0
0
0
0
0

NodalMass_(kg) 1 343 double
3.15563e-06
1.41304e-05
2.20912e-06
1.71484e-05
8.42e-06
9.09306e-06
1.01179e-05
7.52198e-06
6.81096e-06
5.58223e-06
3.10888e-06
1.07575e-05
4.87011e-06
1.64955e-05
3.0246e-06
8.05984e-06
6.703e-06
1.0877e-05
4.18978e-06
8.16106e-06
6.14143e-06
1.17902e-05
2.23114e-06
4.25176e-06
1.09915e-05
7.41467e-06
4.21871e-06
3.92484e-06
3.08766e-06
1.31268e-05
7.72627e-06
1.65404e-05
1.19037e-05
7.97564e-06
3.81683e-06
1.11001e-05
3.81317e-06
1.39137e-05
6.37414e-06
8.00975e-06
7.6712e-06
1.21135e-05
1.6399e-05
2.78633e-06
8.93599e-06
2.58087e-06
7.57362e-06
4.23241e-06
1.31286e-05
3.80168e-06
2.7746e-06
7.16776e-06
1.21307e-05
5.11765e-06
8.19728e-06
4.58094e-06
2.79503e-06
3.26126e-06
4.12443e-06
2.11915e-06
3.35177e-06
3.61669e-06
1.56838e-05
7.33679e-06
8.24695e-06
5.00369e-06
2.82625e-06
7.20276e-06
3.26815e-06
4.18751e-06
2.02785e-06
2.42152e-06
3.11835e-06
5.97459e-06
5.87101e-06
4.09374e-06
5.45463e-06
2.28825e-06
4.49759e-06
4.38192e-06
4.50892e-06
4.39234e-06
4.27273e-06
5.32031e-06
1.53201e-06
2.38869e-06
2.02885e-06
4.38798e-06
3.17972e-06
3.14298e-06
4.61567e-06
5.87645e-06
8.18088e-06
2.48341e-06
1.53815e-05
3.49683e-06
7.35227e-06
2.01314e-06
2.0408e-06
7.98183e-06
4.41293e-06
7.1389e-06
1.20123e-06
5.03343e-06
1.61257e-06
4.12601e-06
8.73748e-06
4.37849e-06
7.97173e-06
2.13557e-06
3.38137e-06
9.48623e-06
7.40262e-06
1.80226e-06
2.10222e-06
7.98889e-06
1.87983e-06
7.44814e-06
4.19782e-06
2.37156e-06
4.31705e-06
6.06441e-06
4.30905e-06
2.16843e-06
1.8986e-06
1.81294e-06
3.89762e-06
2.44299e-06
1.65628e-06
8.01374e-06
1.64513e-06
2.3931e-06
3.01363e-06
2.99431e-06
1.36541e-06
1.87293e-06
2.09622e-06
1.94762e-06
1.87618e-06
6.37913e-06
4.58628e-06
2.02767e-06
1.61999e-06
2.41284e-06
3.8865e-06
4.44973e-06
2.29839e-06
1.17349e-05
3.11811e-06
1.354e-06
3.45063e-06
1.81846e-06
2.9382e-06
1.37381e-06
2.41464e-06
2.10451e-06
2.63927e-06
2.14166e-06
1.7943e-06
3.19976e-06
1.36989e-06
2.43489e-06
2.08158e-06
1.3601e-06
2.17203e-06
1.89924e-06
3.16996e-06
2.6119e-06
2.37677e-06
1.60225e-06
1.90684e-06
5.49206e-06
1.87878e-06
3.14313e-06
2.97301e-06
1.18454e-06
1.89263e-06
2.04166e-06
2.73572e-06
2.42405e-06
3.23083e-06
3.19752e-06
3.2142e-06
1.94492e-06
1.61196e-06
1.86876e-06
3.22435e-06
2.1114e-06
2.96917e-06
6.15288e-06
2.3097e-06
2.39729e-06
2.38029e-06
2.64508e-06
1.66557e-06
1.82377e-06
2.06583e-06
5.73271e-06
2.08467e-06
2.18324e-06
2.43522e-06
3.1188e-06
3.17316e-06
2.05447e-06
1.9592e-06
3.05718e-06
6.44327e-06
2.08796e-06
2.72615e-06
2.15709e-06
1.86812e-06
2.0028e-06
2.10999e-06
2.88994e-06
2.3222e-06
2.3979e-06
1.97629e-06
6.4127e-06
2.16225e-06
3.29198e-06
2.10223e-06
2.66566e-06
1.94415e-06
2.91865e-06
2.58116e-06
2.11703e-06
2.09534e-06
1.91719e-06
7.06046e-06
2.25203e-06
2.06378e-06
6.28159e-06
2.12147e-06
2.90924e-06
2.12921e-06
6.4487e-06
1.41701e-06
2.0682e-06
6.58062e-06
2.52584e-06
2.39732e-06
7.42191e-07
2.22368e-06
7.06751e-07
7.00657e-07
8.93749e-07
2.53536e-06
2.26535e-06
1.33607e-06
7.84725e-07
2.32303e-06
6.06694e-07
6.68276e-07
6.84307e-07
2.51242e-06
2.31629e-06
7.8367e-07
6.80839e-07
6.22692e-06
6.7471e-07
6.65305e-07
7.01158e-07
1.8232e-06
1.90695e-06
6.86722e-07
7.04792e-07
1.86445e-06
2.28572e-06
6.8045e-07
7.16005e-07
1.82373e-06
6.01079e-07
2.02791e-06
7.4579e-07
5.74423e-07
1.80052e-06
1.454e-06
2.2702e-06
1.80636e-06
2.15356e-06
1.79089e-06
1.79456e-06
6.8231e-07
2.24737e-06
1.45239e-06
1.79556e-06
6.97875e-07
6.24265e-07
6.62717e-07
1.44627e-06
1.40138e-06
2.15258e-06
1.82851e-06
1.3994e-06
1.43932e-06
2.19226e-06
6.97732e-07
1.77726e-06
1.79162e-06
6.54258e-07
7.3397e-07
2.34895e-06
7.10392e-07
6.56982e-07
6.26314e-07
2.18926e-06
6.12493e-07
6.03901e-07
5.92831e-07
5.12031e-07
5.11667e-07
4.9467e-07
4.97016e-07
4.96269e-07
5.33079e-07
4.94191e-07
4.97855e-07
4.86862e-07
4.90626e-07
4.94649e-07
4.94954e-07
4.91922e-07
4.89615e-07
4.96354e-07
4.95189e-07
4.82188e-07
1.10854e-06
5.3299e-07
5.44763e-07
5.36655e-07
5.15417e-07
5.01772e-07
5.53774e-07
5.53774e-07
5.53774e-07
5.53774e-07
5.53774e-07
5.53774e-07
5.50785e-07
5.50785e-07
7.45291e-07
7.11668e-07
4.9897e-07

NodalForce_(N) 3 343 double
2.33038e-05 9.89959e-07 -1.54634e-06
0.000212147 1.38766e-05 -1.39409e-05
0.000223203 0.000299416 0.000843112
0.000221923 -4.65942e-06 -1.39594e-05
0.000274356 -1.5878e-05 -1.67754e-05
0.000297643 1.39471e-05 1.69929e-07
0.00039347 3.86995e-05 -4.14839e-05
0.000261524 2.56008e-05 -4.44319e-05
0.000252999 1.75405e-06 1.04598e-05
0.000176772 1.82129e-05 -1.28936e-05
7.00777e-05 -2.95435e-06 6.55869e-06
0.000332309 -1.45687e-05 1.50789e-05
0.000114256 -1.20114e-05 7.3178e-06
0.000229052 7.71961e-06 -2.73971e-06
7.26335e-05 -4.33092e-08 6.21845e-06
0.000297864 5.55457e-05 2.42047e-05
0.000240832 4.32968e-05 -1.93324e-05
0.000175639 -2.28033e-06 -5.76555e-06
-0.000845313 0.000930583 0.000543142
9.59211e-05 1.5461e-06 -3.05451e-06
0.000217953 -6.06151e-06 -4.76468e-05
0.000460592 -3.65278e-05 -4.0034e-05
0.000236782 -0.00139987 -0.000963744
8.11878e-05 -1.60743e-05 -2.18304e-05
0.000302457 -3.44076e-05 -5.74597e-05
0.000172779 1.20847e-06 -2.94729e-05
3.43639e-05 -1.63819e-06 -3.7796e-08
8.05708e-05 -1.86818e-05 -1.43284e-05
4.01351e-05 6.04802e-06 -7.82001e-06
0.000155173 2.22363e-05 -1.25467e-05
0.000178175 2.69595e-05 -3.30649e-05
0.000623239 0.000161086 0.000147003
0.000454168 3.41298e-05 8.07207e-05
0.000314526 5.51108e-05 -3.71584e-06
0.000149821 5.44149e-05 -3.19274e-05
0.000418935 0.000119667 -4.00296e-05
0.000141517 6.06242e-05 -2.40575e-05
0.000478757 0.000177996 -0.000192586
0.00015088 4.30744e-06 -2.91358e-06
0.000217786 1.04753e-05 9.38731e-06
0.000194807 -1.30223e-05 -3.47027e-06
0.000329449 7.38913e-05 3.23639e-05
0.000198368 1.83458e-05 3.14643e-06
3.71022e-05 9.52793e-06 3.43943e-06
0.000194183 4.80432e-05 -1.60018e-06
0.0016155 0.000975435 -0.000429636
8.70233e-05 8.21479e-06 -4.33971e-06
-0.000118436 0.0010911 8.38388e-05
0.000210252 1.75488e-05 -5.74339e-06
3.50661e-05 2.10851e-06 -9.38463e-07
8.8827e-05 1.69607e-05 2.73617e-05
0.000232568 3.54611e-05 3.42077e-05
0.000161743 1.90204e-05 -4.84999e-06
0.000100307 1.18167e-05 -2.51392e-06
9.06073e-05 6.69827e-06 -3.97084e-06
0.000185212 2.1456e-05 4.68676e-05
0.000401892 0.000252169 0.000517097
3.14292e-05 2.47308e-06 -2.84495e-06
0.000575938 -7.16785e-05 -0.000454972
8.64265e-05 1.92312e-05 1.26681e-05
5.60634e-05 2.78873e-06 2.47398e-06
0.000144181 -2.10213e-05 -3.15926e-05
0.000554779 -8.09577e-05 -0.000202834
0.000284742 2.36065e-06 -5.7073e-05
0.000196118 -1.89961e-05 -1.07416e-05
4.01195e-05 5.98985e-06 7.11225e-07
4.69162e-05 -3.27043e-06 9.09963e-07
0.000240527 1.14009e-05 2.72989e-05
0.000128613 3.45967e-05 -3.16209e-05
0.000162267 -3.10472e-05 -2.7574e-05
3.49477e-05 -1.11505e-06 -7.33827e-06
3.70107e-05 4.05206e-07 2.15133e-06
4.89013e-05 -7.90615e-06 -3.99671e-06
0.0001748 1.75682e-05 8.58924e-06
0.000126128 5.88187e-07 -8.5743e-06
0.000935096 0.000534014 0.000236619
0.000165524 2.68261e-06 -1.84261e-05
2.19989e-05 4.94354e-07 -2.13575e-06
0.00011291 2.70293e-05 3.66268e-05
0.000115421 4.08667e-05 3.5803e-05
8.36929e-05 2.61002e-05 1.79793e-05
7.73485e-05 1.54368e-05 1.96905e-05
0.000173822 5.53202e-05 3.01614e-06
0.000106314 1.52214e-05 -9.79678e-06
0.000713282 -0.000500064 0.000743942
1.89972e-05 1.64172e-06 -1.71855e-06
0.000615577 -0.000356895 -0.000316636
0.00194279 -0.000562355 -0.000655031
-0.000255629 0.000779965 -0.000583125
4.40295e-05 2.22768e-06 -7.25472e-06
4.00089e-05 1.38816e-06 -8.79916e-07
0.000181024 3.06869e-05 8.10695e-07
0.000176623 2.33384e-05 9.89171e-06
7.90869e-05 -4.5867e-06 1.62697e-05
0.000582536 -4.71126e-05 9.05709e-05
0.00012054 -2.43768e-05 -2.59633e-05
0.000246369 -3.10774e-05 -3.95851e-05
7.70798e-05 -3.46848e-06 -2.50361e-05
0.000525749 0.000365909 0.000206199
0.000265889 7.50784e-05 1.11889e-05
0.000108194 -2.59782e-05 -3.93908e-05
0.000214714 -5.9829e-06 -6.03594e-05
1.81697e-05 5.74965e-06 1.94829e-07
0.000191992 7.45271e-05 8.13482e-06
1.98953e-05 -2.86237e-06 -3.91741e-06
0.000114054 -2.96096e-05 -3.09088e-05
0.000276787 9.53367e-05 -4.98756e-05
0.000171296 -3.11361e-05 -2.18807e-07
0.000284794 -2.5739e-05 3.17595e-06
1.94621e-05 9.94375e-07 -3.68183e-07
9.21545e-05 2.9345e-05 -4.80735e-05
0.000246231 7.91689e-05 -5.96747e-05
0.000214061 4.08471e-05 -6.39801e-05
-0.000434709 0.000222392 -0.00126368
7.71432e-05 -1.3563e-05 -3.1834e-05
0.00010309 4.71746e-06 -4.546e-06
6.80772e-05 2.65601e-05 -2.92527e-05
0.000287828 5.36674e-05 -5.99186e-05
9.93432e-05 5.66619e-05 -3.79389e-05
8.5736e-05 -1.39647e-05 6.07554e-06
0.000175996 -2.1983e-05 -5.17339e-07
0.000239414 5.17441e-06 -1.44776e-06
4.17135e-05 -5.26518e-07 3.3659e-07
0.000851914 0.000207762 0.000607109
1.68822e-05 6.93313e-08 -6.20579e-08
7.39152e-05 1.68488e-05 -2.12002e-06
8.59235e-05 4.27043e-05 -4.23317e-05
0.000410758 0.000523492 -0.000572716
1.23307e-05 2.39312e-07 2.58804e-07
0.000182434 5.27032e-05 -2.04645e-05
6.16583e-05 2.20131e-05 1.459e-05
9.60745e-05 2.85266e-05 2.10486e-05
8.52599e-05 -5.97207e-06 1.4161e-05
9.87208e-05 2.24011e-06 2.31867e-05
-0.000115711 -0.00095864 0.00088437
1.33331e-05 1.62499e-06 1.7171e-07
0.000191972 0.000164738 0.000172512
6.99838e-05 -1.63019e-05 -2.24543e-05
6.85242e-05 1.83159e-05 -2.97857e-05
0.000226504 4.61012e-05 -9.29136e-05
0.000165537 1.57853e-05 5.15043e-05
6.67979e-05 -6.40949e-06 1.53589e-05
6.17062e-05 -1.12715e-05 8.21915e-06
9.62892e-05 -1.19733e-05 1.38224e-05
0.0002508 0.000725793 -0.00117478
0.000136854 -2.09746e-05 1.62434e-05
5.31027e-05 -9.73229e-06 -5.72418e-06
0.000410715 3.32966e-05 -0.000154305
0.000113352 5.21625e-06 -5.10106e-05
2.65667e-05 9.12663e-06 2.4377e-06
4.22207e-05 1.60858e-05 -4.87667e-06
1.3407e-05 -4.53932e-07 -3.91823e-07
0.00086257 0.00074909 0.000312349
5.62815e-05 7.8579e-06 4.25859e-06
7.51194e-05 3.48521e-05 -1.86139e-05
6.66101e-05 1.65603e-05 2.51872e-05
0.00116664 -0.00073139 -0.000368636
-0.00192552 0.00195274 0.00342514
5.67667e-05 6.67932e-06 1.46467e-05
0.000130199 -2.72747e-06 1.1068e-05
3.40214e-05 -4.44776e-06 7.92399e-07
2.60751e-05 6.50604e-06 3.83207e-06
5.93e-05 -1.42554e-05 -2.84691e-05
3.69444e-05 5.91886e-06 9.1966e-06
8.66111e-05 1.82694e-05 2.70682e-05
6.85576e-05 1.34418e-05 2.48831e-05
8.86808e-05 -1.03214e-05 -3.94145e-05
4.51282e-05 5.40473e-06 -9.97248e-06
6.33778e-05 3.26687e-05 -3.84286e-05
4.62915e-05 2.55191e-05 -2.1763e-05
4.5278e-05 1.22988e-05 -1.98311e-05
0.000190923 4.13692e-05 -4.93418e-05
5.97388e-05 -1.57227e-05 -2.13311e-05
5.18263e-05 3.35769e-06 2.83605e-06
6.78425e-05 5.87753e-06 1.00047e-05
2.83316e-05 1.38307e-06 3.3112e-06
6.22478e-05 2.11382e-05 2.15416e-05
2.91728e-05 -1.56499e-06 1.1437e-06
0.000104733 1.52584e-05 -3.59841e-05
0.000908447 -0.000712476 0.000161923
0.000128827 5.58857e-07 3.25951e-05
8.96496e-05 -1.23471e-06 -5.88059e-05
0.000108608 -9.98544e-06 -6.58442e-05
0.000563614 -0.000131707 0.000231206
1.67919e-05 2.33095e-06 3.05863e-06
6.47365e-05 -1.11799e-05 1.1716e-05
0.000114448 -8.47227e-06 3.01139e-05
7.69394e-05 3.89404e-07 2.28366e-05
8.08955e-05 3.1348e-05 2.31514e-06
0.000181277 4.46478e-05 -1.16528e-05
6.10768e-05 2.64844e-05 -6.71524e-06
7.85197e-05 2.84731e-05 1.15191e-05
3.69848e-05 3.35762e-06 5.05298e-06
5.57193e-05 2.63133e-06 -1.49674e-05
2.76789e-05 -3.55509e-06 -4.55643e-07
3.42292e-05 -3.86723e-06 6.53175e-07
6.66105e-05 1.72176e-06 -4.6184e-05
0.000100502 3.2336e-05 -2.22259e-05
8.1915e-05 4.71974e-06 -1.8415e-05
5.86879e-05 9.95016e-06 -2.72369e-05
8.48943e-05 4.08065e-05 -3.05322e-05
0.000976816 -0.000746972 -3.20085e-05
2.30315e-05 3.11514e-06 -1.11568e-06
0.000350428 -1.82024e-05 5.52213e-05
2.98862e-05 1.48854e-05 -1.29669e-05
4.79229e-05 2.73738e-05 -1.37141e-05
0.000186297 1.41303e-05 -3.37906e-05
5.89708e-05 3.26603e-06 -2.86785e-05
8.49857e-05 -1.47956e-05 -9.11982e-06
6.97955e-05 -1.07078e-05 -1.8783e-07
1.22276e-05 1.91227e-06 -5.26079e-07
5.76176e-05 -9.5472e-06 -3.60249e-05
8.60015e-05 4.95223e-06 1.0629e-05
9.73233e-05 3.96299e-05 -5.2357e-06
6.7952e-05 4.16109e-07 1.05354e-05
2.84779e-05 -5.64592e-06 -2.75793e-06
7.77057e-05 -5.96556e-06 1.93213e-05
0.000109589 7.34453e-06 -5.7109e-06
5.5715e-05 1.66282e-06 -2.14433e-05
9.14828e-05 1.65572e-05 -6.11049e-05
5.40678e-05 1.92093e-05 7.45352e-06
0.000108194 7.08421e-06 -3.47017e-06
4.51989e-05 2.25517e-05 -1.02039e-05
0.000107713 -1.93089e-05 -8.27237e-06
3.32973e-05 1.106e-05 -1.17184e-06
0.000472574 0.000571691 0.00119391
4.5572e-05 7.71292e-06 9.87106e-06
5.82532e-05 -8.25565e-06 2.82591e-06
0.000170663 1.46323e-05 -1.44171e-05
4.47674e-05 1.74579e-05 -1.77156e-06
5.21759e-05 -7.88303e-06 -9.86987e-07
0.000155895 1.42718e-05 -5.5929e-06
0.000637468 -0.00343121 0.000464366
0.000341325 0.00142928 -0.00206055
4.85791e-05 7.24593e-06 -1.71907e-05
0.000188539 3.44119e-05 -2.70981e-05
3.93217e-05 -8.19886e-06 -6.63289e-06
8.31268e-05 1.22617e-05 -1.09115e-05
0.00015882 2.08621e-05 -9.17582e-06
7.36346e-05 5.17241e-06 1.32131e-05
8.10875e-05 1.24069e-05 -5.17278e-05
0.00175611 -0.000245128 0.000940141
6.07243e-05 2.27502e-05 -4.47666e-05
9.57927e-06 -2.92638e-06 -2.09955e-06
0.00166213 -0.000922321 -1.48615e-05
1.65234e-05 5.83917e-06 6.50457e-06
0.000882979 -0.00183509 4.91937e-05
7.47383e-05 2.54892e-05 -5.26189e-05
3.73366e-05 9.6658e-06 -3.39933e-05
0.00078411 -0.000400734 -4.44426e-05
5.39351e-05 -5.12573e-06 -1.69872e-05
0.000682636 0.000632235 0.00025502
2.46364e-05 -6.62961e-06 -7.81265e-06
2.6014e-05 1.15649e-05 4.27377e-06
4.62336e-05 1.27932e-05 -1.57198e-05
9.32118e-05 -3.45921e-06 -1.0577e-05
1.57275e-05 -5.44157e-06 -4.79912e-06
0.000665251 8.44556e-06 2.21631e-05
0.000162944 4.38796e-06 -7.98927e-06
1.64622e-05 -2.16105e-06 2.37806e-06
2.5836e-05 -6.10939e-06 2.52698e-06
0.000514173 7.17803e-05 0.000313224
5.65191e-05 3.25407e-05 -3.40396e-05
6.14147e-05 2.91244e-05 -4.5181e-05
2.6602e-05 -6.39727e-06 -2.18103e-06
1.9621e-05 1.81323e-06 -1.77007e-05
1.32268e-05 -6.44055e-07 -1.20159e-06
-0.00130433 0.000465691 -0.000361392
0.000529338 -0.000210743 -4.08826e-05
0.000984373 0.000262433 -0.000300094
4.93374e-05 2.70834e-05 -3.88511e-05
2.15362e-05 1.14022e-05 -6.91027e-06
3.70535e-05 1.71912e-05 -4.66691e-06
2.76268e-05 3.80697e-06 1.152e-05
0.00108666 -0.00102482 0.000626394
-0.000622382 6.28638e-05 -0.000536891
1.1272e-05 -2.97658e-08 2.89277e-10
1.76475e-05 1.02537e-06 -2.43163e-07
6.63141e-05 2.2653e-05 2.50035e-05
1.33325e-05 7.88445e-07 5.56642e-07
-0.00123849 0.000580365 -0.000599141
7.04634e-05 2.0221e-05 2.53782e-05
1.51343e-05 1.04741e-05 -8.72994e-06
7.44172e-05 -1.7511e-05 -4.63281e-05
8.61892e-06 1.19319e-06 3.88064e-07
6.44073e-05 1.65919e-05 2.6617e-05
2.56526e-05 1.24771e-06 9.88291e-06
0.000374715 -6.69029e-05 -0.000702145
1.72451e-05 -5.84622e-06 -6.78977e-06