# vtk DataFile Version 4.2
vtk output
ASCII
DATASET UNSTRUCTURED_GRID

POINTS 343 double
0.00160951 0.00421622 -2.06008e-05
0.00311307 0.00502402 0.00213516
0 0.00419538 0.00112517
0.00277151 0.00199113 0.00190653
0.00743822 0.00251163 0.00493773
0.00743549 0.00393276 0.00630244
0.0109589 0.00493062 0.00485888
0.00894807 0.0049757 0.00357805
0.00983437 0.00342805 0.00678759
0.00717092 0.00509117 0.00490844
0.00601552 0.00120247 0.00992022
0.00759892 0.00218731 0.00780578
0.00603474 7.7953e-05 0.00823988
0.00288822 0.00204014 0.0079966
0.00616276 0.00261769 0.00991787
0.00999186 0.00658597 0.00681797
0.00921346 0.00631072 0.00506548
0.00324631 0.00222768 0.00510469
0 0.00143586 0.00417514
0.00228735 0.0034961 0.00400773
0.00983725 0.00333415 0.00303713
0.0111491 0.00237508 0.00492138
0 0.00270918 0.00154168
0.00598738 0.00151392 -7.37116e-05
0.00720813 0.00229008 0.00210657
0.0056965 0.00360549 0.00153125
0.00193342 2.42775e-05 0.00403553
0.00602807 7.83328e-05 0.00161183
0.00376635 0.00700234 -4.67468e-05
0.00277421 0.00808942 0.00190878
0.00586865 0.00632785 0.00157077
0.01149 0.00814545 0.00784694
0.0114508 0.00497838 0.00787261
0.0120498 0.0062506 0.00579194
0.0143428 0.00902273 0.00401041
0.0108793 0.00778752 0.00482437
0.0122912 0.0101531 0.00400999
0.0114543 0.00813192 0.00187138
0.00508089 0.00310512 0.00689503
0.00637709 0.00374868 0.00824077
0.0056003 0.00167869 0.00589806
0.00718078 0.00776565 0.00758363
0.00284824 0.00804541 0.00795339
0.00404691 0.0100505 0.00707514
0.00561442 0.00847479 0.00588569
0 0.00695361 0.00262895
0.00235899 0.00627046 0.00405754
0 0.0040177 0.00850214
0.00331877 0.00502917 0.00761928
0.00205399 0.0042008 0.0099739
0.0103022 0.00726035 0.00986187
0.00878709 0.00609182 0.00830246
0.00293816 0.00798022 0.00470395
0.00436424 0.0070014 0.0064123
0.00227387 0.00610828 0.00589682
0.0143427 0.00598778 0.00812229
0 0.00718191 0.00711644
0.0022703 0.00580395 -2.89472e-05
0 0.00577432 0.00158701
0.0143425 0.00735913 0.00692493
0.00411698 0.00340372 0.00994527
0.0143396 0.00162461 0.00399308
0.0115713 0.00211214 0.00183415
0.0120658 0.00367603 0.00384478
0.00536133 0.00172293 0.00405991
0.00215771 0.0100276 0.00578713
0.00404494 5.23895e-05 0.00707679
0.00878335 0.00429363 0.00826097
0.0143399 0.00745348 0.00401327
0.0122873 0.000157283 0.00401148
0.00480498 0.00293617 -5.92135e-05
0.00388069 0.00159115 0.00994865
0.0040592 5.274e-05 0.00278036
0.00689128 0.00528796 0.00746488
0.00453791 0.00320768 0.00310895
0 0.00849157 0.00581511
0.00699498 0.00376669 0.00369695
0.00220609 0.00273778 -2.80193e-05
0.00831996 0.00842894 0.00988839
0.00857988 0.0101064 0.00839278
0.00603735 0.0100751 0.00823865
0.00575938 0.0085755 0.00992276
0.0143421 0.00866481 0.00562635
0.00451431 0.0068945 0.00309208
0 0.00748929 0.00137438
0.00196538 0.00751486 -2.51341e-05
0 0.00287343 0.00335182
0 0.00580816 0.00831736
0 0.00429792 0.00253898
0.00363739 0.00434527 -4.51106e-05
0.00205353 0.00584559 0.00997381
0.00742979 0.0065702 0.00630451
0.0051691 0.0065781 0.00816658
0.00997521 0.00275507 0.00986653
0.0115164 0.00210642 0.00788407
0.0100043 0.000128989 0.00295541
0.00863983 0.00177637 0.00350323
0.0143389 0.00305876 0.00317087
0 0.00140616 0.00256446
0.00914613 0.00834243 0.00630263
0.00835017 0.00154442 -0.00010291
0.0086637 0.00366383 0.00149446
0.00452078 0.0100564 0.00576625
0.0122835 0.0101532 0.00567268
0.00367449 0.00145409 -4.54935e-05
0.00857649 0.00011115 0.00138639
0.00901339 0.00840112 0.00350175
0.0122804 0.000157224 0.00567417
0.0089069 0.00178804 0.00625084
0.00201109 0.00258954 0.00997434
0.0102153 0.0073107 -0.000127487
0.00741329 0.00778409 0.0020742
0.00852926 0.00620219 0.00149434
0 0.00686719 0.00578184
0.0143411 0.00159552 0.00238623
0.00254188 0.00364299 0.0063754
0.0143431 0.00865982 0.00244329
0.0120718 0.00634131 0.00397863
0.00858022 0.0101072 0.0013845
0.010003 0.000128757 0.00679779
0.01434 0.00162386 0.00563199
0.0120508 0.00372707 0.00590427
0.00215778 2.71305e-05 0.00578793
0 0.0013659 0.00748679
0.0019585 2.4719e-05 0.00750453
0.0143405 0.00704576 0.00559245
0.00834637 0.00859696 -0.000104657
0 0.0075208 0.00859127
0.00195384 0.00751149 0.00997508
0.00606761 0.00828231 0.00354975
0.0123329 0.0101523 0.00734894
0.0143456 0.00880287 0.00733295
0.00828411 0.00169367 0.00988951
0.0104186 0.00432029 0.00986015
0 0.0057735 0.00666667
0.00195893 0.010025 0.00750358
0 0.00863025 0.00752641
0.0123268 0.000159306 0.00235192
0.0143402 0.00713332 0.00244915
0.0121409 0.00649478 0.00201025
0.0122157 0.00597734 0.00983668
0.0107498 0.00151284 0.0098565
0.0123295 0.000159026 0.007351
0.0143429 0.00155429 0.00729504
0 0.00143551 0.00581971
0.00857589 0.000110701 0.008394
0.00604217 7.82871e-05 0.00332317
0.0113888 0.00485317 0.00189165
0.014339 0.00448098 0.00236065
0.00606175 0.0100754 0.00658772
0.00405989 0.0100504 0.00277888
0.00187841 2.38122e-05 0.00239434
0 0.00727418 0.00419576
0.0143405 0.00595355 0.00647571
0.0100081 0.0101247 0.00295335
0.0107764 0.00877002 0.0098552
0 0.00574334 0.00336387
0 0.0043297 0.00416652
0.00985836 0.0059081 0.00986793
0.0143399 0.0032069 0.00672576
0.00605879 7.84491e-05 0.00658952
0.00354852 0.0100442 0.00856519
0.0107455 0.00150599 -0.000132527
0.00828433 0.0067708 0.00988895
0.0143459 0.00769698 0.00839466
0.012359 0.00770661 0.00983412
0.00992436 0.00315066 -0.000122433
0.00482205 0.00580592 -5.96763e-05
0.010806 0.00876593 -0.000134513
0.0107886 0.0101342 0.00125091
0.00829765 0.00697244 -0.000103554
0.0100103 0.00649797 0.00290595
0.0107852 0.000140337 0.00125222
0.00413264 0.00505102 0.00994516
0.00620964 0.00591178 0.00991688
0.00620858 0.00424503 0.00991702
0.0107902 0.0101327 0.00847299
0.00354655 4.56875e-05 0.00856652
0.014339 0.00592416 0.00318297
0 0.00302218 0.00691532
0.0143426 0.0042013 0.00830598
0.0122042 0.0041747 -0.000150283
0.0143413 0.00289502 0.00136794
0 0.00244495 0.00857025
0.00350276 0.00861424 0.00995358
0.0107862 0.000139761 0.00847457
0.0121845 0.00277955 0.00983703
0.0127052 0.00435543 0.00982933
0.00813628 0.0101012 0.00572786
0.00744042 0.00767754 0.00493669
0.00809646 0.0101006 0.00411048
0.0100066 0.0101244 0.00679628
0.00433122 0.0069703 0.00994239
0.0059754 0.00440741 -7.37333e-05
0.00406295 5.24541e-05 0.00435328
0.00451865 5.85916e-05 0.00576854
0.0143418 0.00437914 0.000952272
0.00521603 0.00840381 0.00152154
0.0143385 0.00451219 0.00398346
0.00956828 0.00589498 -0.000119197
0.0123303 0.0101533 0.0023504
0 0.00848692 0.00262374
0.00193312 0.010025 0.00403471
0 0.00885053 0.00419359
0.00601547 0.0089265 -7.53816e-05
0.0060304 0.0100752 0.00161042
0.00717157 0.00488388 0.00228814
0.0103618 0.0046545 -0.000128164
0.00809239 0.000104562 0.00411297
0.00813269 0.000105134 0.00572989
0.00187772 0.0100241 0.00239339
0.0123018 0.00260472 -0.00015176
0.01434 0.00470427 0.00702815
0.0102115 0.0101273 0.00486794
0.00823981 0.00346898 0.00988963
0.00352182 4.59035e-05 0.00131203
0.0143442 0.00263147 0.00837383
0.00343075 0.00483521 0.00495595
0.00837007 0.004438 -0.000103444
0.0119401 0.00595888 -0.00014707
0.00786161 0.0100977 0.00711764
0.0143384 0.00451252 0.00564578
0.00775229 0.0100965 0.00267605
0.0102081 0.000131259 0.00486957
0.00406385 0.0100506 0.00435122
0 0.00452174 0.00721958
0.00648451 0.0073015 0.0099131
0.00785801 0.000101583 0.00711895
0.00516568 0.00514049 0.00352997
0.0060974 0.0100757 0.00492891
0.00609439 7.90943e-05 0.00493157
0.00526239 0.00528408 0.00610735
0 0.005744 0.00499998
0 0.00433013 0.00583333
0.00717334 0.00583618 -8.89957e-05
0.00715119 0.00643056 0.00346212
0.00774846 0.000100256 0.00267797
0.014339 0.00592344 0.00481405
0.005291 0.00647593 0.00477597
0.00824112 0.00510399 0.00988951
0.0143415 0.00595429 0.00141245
0 0.00666667 0
0.012334 0.00767498 -0.000152222
0.00477847 6.27395e-05 -5.885e-05
0 0.01 0.00666667
0.00717474 0.0100884 0.00990394
0 0.00288419 0.00499914
0.0143431 0.00766692 0.00119982
0.0143456 0.00684487 -0.000172573
0 0.005 0.01
0.00717124 0.00297739 -8.83855e-05
0 0.005 0
0.0143453 0.00019182 0.00315339
0.014351 0.0101689 0.00647483
0.006018 0.00735098 -7.50032e-05
0.0143388 0.00306958 0.00481396
0.00717248 9.40307e-05 -8.86621e-05
0 0 0.00666667
0.00544604 0.00368662 0.00515675
0.00717147 9.24754e-05 0.00990507
0.0143463 0.000191339 0.00647714
0 0 0.005
0.0126067 0.0101556 0.00106326
0.0143469 0.0089528 0.00104607
0.0143451 0.000191261 0.00481475
0.0143451 0.0051823 -0.00017145
0.00174556 0.00124257 -2.2141e-05
0 0.00122008 0.00122008
0 0.00333333 0.01
0 0.00666667 0.01
0.0126059 0.00893587 -0.000155657
0.0143496 0.0101684 0.00315095
0.00604473 0.0100751 0.00332103
0.0143512 0.0068444 0.00979915
0 0.00333333 0
0 0.00122008 0.00877992
0.00174465 2.20486e-05 0.00875823
0.00174453 0.00124206 0.00997773
0.0126082 0.0101541 0.0086105
0.0017452 0.00880203 0.00997761
0 0.00877992 0.00877992
0.0143495 0.0089515 0.00858306
0.00957127 0.0101189 -0.000120646
0.0143443 0.00141062 0.00104632
0.00174539 0.0100221 0.00875749
0.0126088 0.0089339 0.00982975
0.0143505 0.00518104 0.00979974
0 0 0.00333333
0.00956708 0.000125039 -0.000118434
0.0126027 0.000164736 0.0010638
0.00173346 2.21631e-05 0.00118969
0 0.00877992 0.00122008
0.00174433 0.00880255 -2.24089e-05
0.00173256 0.0100221 0.00118884
0.0143469 0.00140931 0.00858391
0.0126061 0.00138404 0.00983084
0.00956675 0.000123585 0.00987276
0.0126036 0.00138562 -0.000155022
0.0126046 0.000163749 0.00861225
0.0143457 0.00351915 -0.000171117
0.0047794 0.0100589 0.00993603
0.00352191 0.0100439 0.00131087
0.00957101 0.0101178 0.00987168
0.0143499 0.00351706 0.00979955
0 0.01 0.005
0.00375906 0.00853491 -4.70002e-05
0.0143495 0.0101686 0.00481413
0 0.01 0.00333333
0 0.00166667 0
0.0143472 0.000191748 0.00149145
0 0.00166667 0.01
0 0.00833333 0
0.0143489 0.00850846 -0.000173331
0.0143493 0.000191124 0.00813966
0.0143518 0.0101703 0.00149109
0.0143539 0.0101691 0.00813779
0.00238616 0.0100294 0.00996882
0 0.01 0.00833333
0.0119678 0.0101476 -0.00014894
0.0119636 0.000157309 -0.000147853
0.0119655 0.000155738 0.00984028
0.0119695 0.0101458 0.00983901
0 0 0.00833333
0.0143538 0.00850543 0.00980006
0.00238612 3.13407e-05 -2.99427e-05
0 0 0.00166667
0.00477946 0.0100596 -6.00277e-05
0.0143514 0.00185561 0.00980079
0.0143476 0.00185742 -0.000171867
0.00238452 3.0494e-05 0.00996953
0.0023852 0.01003 -3.05398e-05
0 0.01 0.00166667
0.0143585 0.0101708 0.00980133
0 0 0.01
0.014355 0.0101712 -0.000174551
0.0143545 0.000190033 0.00980333
0 0.01 0.01
0.0143512 0.000191482 -0.000173326
0 0.01 0
0 0 0
0.00717526 0.0100893 -9.05935e-05
0.00477713 6.15454e-05 0.00993689
0 0.00833333 0.01

CELLS 343 686
1 0
1 1
1 2
1 3
1 4
1 5
1 6
1 7
1 8
1 9
1 10
1 11
1 12
1 13
1 14
1 15
1 16
1 17
1 18
1 19
1 20
1 21
1 22
1 23
1 24
1 25
1 26
1 27
1 28
1 29
1 30
1 31
1 32
1 33
1 34
1 35
1 36
1 37
1 38
1 39
1 40
1 41
1 42
1 43
1 44
1 45
1 46
1 47
1 48
1 49
1 50
1 51
1 52
1 53
1 54
1 55
1 56
1 57
1 58
1 59
1 60
1 61
1 62
1 63
1 64
1 65
1 66
1 67
1 68
1 69
1 70
1 71
1 72
1 73
1 74
1 75
1 76
1 77
1 78
1 79
1 80
1 81
1 82
1 83
1 84
1 85
1 86
1 87
1 88
1 89
1 90
1 91
1 92
1 93
1 94
1 95
1 96
1 97
1 98
1 99
1 100
1 101
1 102
1 103
1 104
1 105
1 106
1 107
1 108
1 109
1 110
1 111
1 112
1 113
1 114
1 115
1 116
1 117
1 118
1 119
1 120
1 121
1 122
1 123
1 124
1 125
1 126
1 127
1 128
1 129
1 130
1 131
1 132
1 133
1 134
1 135
1 136
1 137
1 138
1 139
1 140
1 141
1 142
1 143
1 144
1 145
1 146
1 147
1 148
1 149
1 150
1 151
1 152
1 153
1 154
1 155
1 156
1 157
1 158
1 159
1 160
1 161
1 162
1 163
1 164
1 165
1 166
1 167
1 168
1 169
1 170
1 171
1 172
1 173
1 174
1 175
1 176
1 177
1 178
1 179
1 180
1 181
1 182
1 183
1 184
1 185
1 186
1 187
1 188
1 189
1 190
1 191
1 192
1 193
1 194
1 195
1 196
1 197
1 198
1 199
1 200
1 201
1 202
1 203
1 204
1 205
1 206
1 207
1 208
1 209
1 210
1 211
1 212
1 213
1 214
1 215
1 216
1 217
1 218
1 219
1 220
1 221
1 222
1 223
1 224
1 225
1 226
1 227
1 228
1 229
1 230
1 231
1 232
1 233
1 234
1 235
1 236
1 237
1 238
1 239
1 240
1 241
1 242
1 243
1 244
1 245
1 246
1 247
1 248
1 249
1 250
1 251
1 252
1 253
1 254
1 255
1 256
1 257
1 258
1 259
1 260
1 261
1 262
1 263
1 264
1 265
1 266
1 267
1 268
1 269
1 270
1 271
1 272
1 273
1 274
1 275
1 276
1 277
1 278
1 279
1 280
1 281
1 282
1 283
1 284
1 285
1 286
1 287
1 288
1 289
1 290
1 291
1 292
1 293
1 294
1 295
1 296
1 297
1 298
1 299
1 300
1 301
1 302
1 303
1 304
1 305
1 306
1 307
1 308
1 309
1 310
1 311
1 312
1 313
1 314
1 315
1 316
1 317
1 318
1 319
1 320
1 321
1 322
1 323
1 324
1 325
1 326
1 327
1 328
1 329
1 330
1 331
1 332
1 333
1 334
1 335
1 336
1 337
1 338
1 339
1 340
1 341
1 342

CELL_TYPES 343
1
1
1
1
1
1
1
1
1
1
1
1
1
1
1
1
1
1
1
1
1
1
1
1
1
1
1
1
1
1
1
1
1
1
1
1
1
1
1
1
1
1
1
1
1
1
1
1
1
1
1
1
1
1
1
1
1
1
1
1
1
1
1
1
1
1
1
1
1
1
1
1
1
1
1
1
1
1
1
1
1
1
1
1
1
1
1
1
1
1
1
1
1
1
1
1
1
1
1
1
1
1
1
1
1
1
1
1
1
1
1
1
1
1
1
1
1
1
1
1
1
1
1
1
1
1
1
1
1
1
1
1
1
1
1
1
1
1
1
1
1
1
1
1
1
1
1
1
1
1
1
1
1
1
1
1
1
1
1
1
1
1
1
1
1
1
1
1
1
1
1
1
1
1
1
1
1
1
1
1
1
1
1
1
1
1
1
1
1
1
1
1
1
1
1
1
1
1
1
1
1
1
1
1
1
1
1
1
1
1
1
1
1
1
1
1
1
1
1
1
1
1
1
1
1
1
1
1
1
1
1
1
1
1
1
1
1
1
1
1
1
1
1
1
1
1
1
1
1
1
1
1
1
1
1
1
1
1
1
1
1
1
1
1
1
1
1
1
1
1
1
1
1
1
1
1
1
1
1
1
1
1
1
1
1
1
1
1
1
1
1
1
1
1
1
1
1
1
1
1
1
1
1
1
1
1
1
1
1
1
1
1
1
1
1
1
1
1
1
1
1
1
1
1
1
1
1
1
1
1
1
1
1
1
1
1
1
1
1
1
1
1
1

POINT_DATA 343
FIELD FieldData 8

NodeID_(#) 1 343 int
0
1
2
3
4
5
6
7
8
9
10
11
12
13
14
15
16
17
18
19
20
21
22
23
24
25
26
27
28
29
30
31
32
33
34
35
36
37
38
39
40
41
42
43
44
45
46
47
48
49
50
51
52
53
54
55
56
57
58
59
60
61
62
63
64
65
66
67
68
69
70
71
72
73
74
75
76
77
78
79
80
81
82
83
84
85
86
87
88
89
90
91
92
93
94
95
96
97
98
99
100
101
102
103
104
105
106
107
108
109
110
111
112
113
114
115
116
117
118
119
120
121
122
123
124
125
126
127
128
129
130
131
132
133
134
135
136
137
138
139
140
141
142
143
144
145
146
147
148
149
150
151
152
153
154
155
156
157
158
159
160
161
162
163
164
165
166
167
168
169
170
171
172
173
174
175
176
177
178
179
180
181
182
183
184
185
186
187
188
189
190
191
192
193
194
195
196
197
198
199
200
201
202
203
204
205
206
207
208
209
210
211
212
213
214
215
216
217
218
219
220
221
222
223
224
225
226
227
228
229
230
231
232
233
234
235
236
237
238
239
240
241
242
243
244
245
246
247
248
249
250
251
252
253
254
255
256
257
258
259
260
261
262
263
264
265
266
267
268
269
270
271
272
273
274
275
276
277
278
279
280
281
282
283
284
285
286
287
288
289
290
291
292
293
294
295
296
297
298
299
300
301
302
303
304
305
306
307
308
309
310
311
312
313
314
315
316
317
318
319
320
321
322
323
324
325
326
327
328
329
330
331
332
333
334
335
336
337
338
339
340
341
342

Component_(#) 1 343 int
0
0
0
0
0
0
0
0
0
0
0
0
0
0
0
0
0
0
0
0
0
0
0
0
0
0
0
0
0
0
0
0
0
0
0
0
0
0
0
0
0
0
0
0
0
0
0
0
0
0
0
0
0
0
0
0
0
0
0
0
0
0
0
0
0
0
0
0
0
0
0
0
0
0
0
0
0
0
0
0
0
0
0
0
0
0
0
0
0
0
0
0
0
0
0
0
0
0
0
0
0
0
0
0
0
0
0
0
0
0
0
0
0
0
0
0
0
0
0
0
0
0
0
0
0
0
0
0
0
0
0
0
0
0
0
0
0
0
0
0
0
0
0
0
0
0
0
0
0
0
0
0
0
0
0
0
0
0
0
0
0
0
0
0
0
0
0
0
0
0
0
0
0
0
0
0
0
0
0
0
0
0
0
0
0
0
0
0
0
0
0
0
0
0
0
0
0
0
0
0
0
0
0
0
0
0
0
0
0
0
0
0
0
0
0
0
0
0
0
0
0
0
0
0
0
0
0
0
0
0
0
0
0
0
0
0
0
0
0
0
0
0
0
0
0
0
0
0
0
0
0
0
0
0
0
0
0
0
0
0
0
0
0
0
0
0
0
0
0
0
0
0
0
0
0
0
0
0
0
0
0
0
0
0
0
0
0
0
0
0
0
0
0
0
0
0
0
0
0
0
0
0
0
0
0
0
0
0
0
0
0
0
0
0
0
0
0
0
0
0
0
0
0
0
0
0
0
0
0
0
0
0
0
0
0
0
0
0
0
0
0
0
0

NodalMass_(kg) 1 343 double
3.15563e-06
1.41304e-05
2.20912e-06
1.71484e-05
8.42e-06
9.09306e-06
1.01179e-05
7.52198e-06
6.81096e-06
5.58223e-06
3.10888e-06
1.07575e-05
4.87011e-06
1.64955e-05
3.0246e-06
8.05984e-06
6.703e-06
1.0877e-05
4.18978e-06
8.16106e-06
6.14143e-06
1.17902e-05
2.23114e-06
4.25176e-06
1.09915e-05
7.41467e-06
4.21871e-06
3.92484e-06
3.08766e-06
1.31268e-05
7.72627e-06
1.65404e-05
1.19037e-05
7.97564e-06
3.81683e-06
1.11001e-05
3.81317e-06
1.39137e-05
6.37414e-06
8.00975e-06
7.6712e-06
1.21135e-05
1.6399e-05
2.78633e-06
8.93599e-06
2.58087e-06
7.57362e-06
4.23241e-06
1.31286e-05
3.80168e-06
2.7746e-06
7.16776e-06
1.21307e-05
5.11765e-06
8.19728e-06
4.58094e-06
2.79503e-06
3.26126e-06
4.12443e-06
2.11915e-06
3.35177e-06
3.61669e-06
1.56838e-05
7.33679e-06
8.24695e-06
5.00369e-06
2.82625e-06
7.20276e-06
3.26815e-06
4.18751e-06
2.02785e-06
2.42152e-06
3.11835e-06
5.97459e-06
5.87101e-06
4.09374e-06
5.45463e-06
2.28825e-06
4.49759e-06
4.38192e-06
4.50892e-06
4.39234e-06
4.27273e-06
5.32031e-06
1.53201e-06
2.38869e-06
2.02885e-06
4.38798e-06
3.17972e-06
3.14298e-06
4.61567e-06
5.87645e-06
8.18088e-06
2.48341e-06
1.53815e-05
3.49683e-06
7.35227e-06
2.01314e-06
2.0408e-06
7.98183e-06
4.41293e-06
7.1389e-06
1.20123e-06
5.03343e-06
1.61257e-06
4.12601e-06
8.73748e-06
4.37849e-06
7.97173e-06
2.13557e-06
3.38137e-06
9.48623e-06
7.40262e-06
1.80226e-06
2.10222e-06
7.98889e-06
1.87983e-06
7.44814e-06
4.19782e-06
2.37156e-06
4.31705e-06
6.06441e-06
4.30905e-06
2.16843e-06
1.8986e-06
1.81294e-06
3.89762e-06
2.44299e-06
1.65628e-06
8.01374e-06
1.64513e-06
2.3931e-06
3.01363e-06
2.99431e-06
1.36541e-06
1.87293e-06
2.09622e-06
1.94762e-06
1.87618e-06
6.37913e-06
4.58628e-06
2.02767e-06
1.61999e-06
2.41284e-06
3.8865e-06
4.44973e-06
2.29839e-06
1.17349e-05
3.11811e-06
1.354e-06
3.45063e-06
1.81846e-06
2.9382e-06
1.37381e-06
2.41464e-06
2.10451e-06
2.63927e-06
2.14166e-06
1.7943e-06
3.19976e-06
1.36989e-06
2.43489e-06
2.08158e-06
1.3601e-06
2.17203e-06
1.89924e-06
3.16996e-06
2.6119e-06
2.37677e-06
1.60225e-06
1.90684e-06
5.49206e-06
1.87878e-06
3.14313e-06
2.97301e-06
1.18454e-06
1.89263e-06
2.04166e-06
2.73572e-06
2.42405e-06
3.23083e-06
3.19752e-06
3.2142e-06
1.94492e-06
1.61196e-06
1.86876e-06
3.22435e-06
2.1114e-06
2.96917e-06
6.15288e-06
2.3097e-06
2.39729e-06
2.38029e-06
2.64508e-06
1.66557e-06
1.82377e-06
2.06583e-06
5.73271e-06
2.08467e-06
2.18324e-06
2.43522e-06
3.1188e-06
3.17316e-06
2.05447e-06
1.9592e-06
3.05718e-06
6.44327e-06
2.08796e-06
2.72615e-06
2.15709e-06
1.86812e-06
2.0028e-06
2.10999e-06
2.88994e-06
2.3222e-06
2.3979e-06
1.97629e-06
6.4127e-06
2.16225e-06
3.29198e-06
2.10223e-06
2.66566e-06
1.94415e-06
2.91865e-06
2.58116e-06
2.11703e-06
2.09534e-06
1.91719e-06
7.06046e-06
2.25203e-06
2.06378e-06
6.28159e-06
2.12147e-06
2.90924e-06
2.12921e-06
6.4487e-06
1.41701e-06
2.0682e-06
6.58062e-06
2.52584e-06
2.39732e-06
7.42191e-07
2.22368e-06
7.06751e-07
7.00657e-07
8.93749e-07
2.53536e-06
2.26535e-06
1.33607e-06
7.84725e-07
2.32303e-06
6.06694e-07
6.68276e-07
6.84307e-07
2.51242e-06
2.31629e-06
7.8367e-07
6.80839e-07
6.22692e-06
6.7471e-07
6.65305e-07
7.01158e-07
1.8232e-06
1.90695e-06
6.86722e-07
7.04792e-07
1.86445e-06
2.28572e-06
6.8045e-07
7.16005e-07
1.82373e-06
6.01079e-07
2.02791e-06
7.4579e-07
5.74423e-07
1.80052e-06
1.454e-06
2.2702e-06
1.80636e-06
2.15356e-06
1.79089e-06
1.79456e-06
6.8231e-07
2.24737e-06
1.45239e-06
1.79556e-06
6.97875e-07
6.24265e-07
6.62717e-07
1.44627e-06
1.40138e-06
2.15258e-06
1.82851e-06
1.3994e-06
1.43932e-06
2.19226e-06
6.97732e-07
1.77726e-06
1.79162e-06
6.54258e-07
7.3397e-07
2.34895e-06
7.10392e-07
6.56982e-07
6.26314e-07
2.18926e-06
6.12493e-07
6.03901e-07
5.92831e-07
5.12031e-07
5.11667e-07
4.9467e-07
4.97016e-07
4.96269e-07
5.33079e-07
4.94191e-07
4.97855e-07
4.86862e-07
4.90626e-07
4.94649e-07
4.94954e-07
4.91922e-07
4.89615e-07
4.96354e-07
4.95189e-07
4.82188e-07
1.10854e-06
5.3299e-07
5.44763e-07
5.36655e-07
5.15417e-07
5.01772e-07
5.53774e-07
5.53774e-07
5.53774e-07
5.53774e-07
5.53774e-07
5.53774e-07
5.50785e-07
5.50785e-07
7.45291e-07
7.11668e-07
4.9897e-07

NodalForce_(N) 3 343 double
-2.23101e-07 -6.80857e-08 6.16745e-08
-2.81754e-06 -9.27117e-07 1.37896e-06
9.39678e-05 -4.99006e-05 0.000566348
-4.69763e-06 -1.02609e-06 1.24462e-06
-1.06829e-05 -3.6604e-06 5.87593e-06
-1.29721e-05 -3.73773e-06 7.0996e-06
-1.59068e-05 -8.2173e-06 1.63527e-05
-7.00702e-06 -4.16545e-06 7.79471e-06
-1.3973e-05 -4.86131e-06 9.5151e-06
-5.4523e-06 -2.04257e-06 3.67582e-06
-6.03015e-06 -1.12542e-06 2.13669e-06
-2.08673e-05 -5.28024e-06 9.92115e-06
-8.51641e-06 -1.78578e-06 3.06127e-06
-1.06997e-05 -1.14297e-06 1.64218e-06
-5.67286e-06 -1.03992e-06 2.19757e-06
-1.4015e-05 -5.53538e-06 1.17393e-05
-7.97171e-06 -3.93304e-06 7.70914e-06
-5.70355e-06 -8.8315e-07 1.38886e-06
0.00100056 0.000525618 0.00047723
-2.28134e-06 -2.59405e-07 4.19662e-07
-6.80461e-06 -4.29048e-06 7.64491e-06
-2.26956e-05 -1.0601e-05 1.96797e-05
0.00190714 -0.000133623 0.000489872
-1.26591e-06 -1.34731e-06 2.10801e-06
-7.74891e-06 -4.70858e-06 8.03476e-06
-2.57844e-06 -1.85237e-06 3.62901e-06
-1.36957e-06 -6.42143e-08 2.18452e-07
-2.69604e-06 -1.16294e-06 2.05221e-06
3.89518e-07 -2.53413e-07 6.11129e-07
-1.09095e-06 -4.44333e-07 1.1953e-06
-1.30981e-06 -1.57443e-06 3.99874e-06
-3.45944e-05 -1.49802e-05 3.25021e-05
-2.9575e-05 -1.06752e-05 2.29718e-05
-1.4724e-05 -7.61336e-06 1.58448e-05
-5.35169e-06 -4.71842e-06 9.86648e-06
-1.32626e-05 -8.86866e-06 1.77587e-05
-3.46232e-06 -3.61761e-06 7.64664e-06
-6.16665e-06 -1.1686e-05 2.39351e-05
-6.51844e-06 -1.32139e-06 2.2867e-06
-1.24099e-05 -2.5165e-06 5.69304e-06
-8.68855e-06 -2.13831e-06 2.91357e-06
-1.51817e-05 -4.88954e-06 1.02898e-05
-7.65425e-06 -1.26799e-06 1.73161e-06
-1.25981e-06 -3.56598e-07 6.35617e-07
-5.49083e-06 -2.23735e-06 3.75467e-06
0.000883771 -0.000229968 -0.000322085
-1.70712e-06 -3.94609e-07 5.13642e-07
0.000661126 0.000470902 -0.000362717
-7.87473e-06 -9.966e-07 1.87868e-06
-1.82682e-06 -1.56232e-07 1.8956e-07
-6.82003e-06 -2.11994e-06 4.80444e-06
-1.36569e-05 -3.98788e-06 9.09666e-06
-3.3612e-06 -5.48803e-07 1.24615e-06
-3.08858e-06 -6.5004e-07 1.23269e-06
-2.65836e-06 -3.44163e-07 5.72051e-07
-1.3464e-05 -5.92429e-06 1.27674e-05
0.000657246 -0.000261014 -4.58603e-05
-7.22458e-08 -1.2826e-07 1.74048e-07
0.00194834 -0.000615381 0.000769797
-5.15591e-06 -2.68581e-06 5.80793e-06
-4.17426e-06 -5.17128e-07 1.15e-06
-8.45842e-06 -4.82267e-06 9.2157e-06
-1.87231e-05 -1.47232e-05 2.63793e-05
-1.19387e-05 -7.19358e-06 1.38696e-05
-7.0474e-06 -2.09412e-06 2.71942e-06
-9.85277e-07 -1.00224e-07 3.07108e-07
-2.81636e-06 -4.77398e-07 5.89896e-07
-1.50821e-05 -4.11675e-06 9.03747e-06
-5.19988e-06 -4.02972e-06 8.40489e-06
-9.03735e-06 -4.41554e-06 8.15896e-06
-1.92596e-07 -3.35824e-07 6.53217e-07
-3.0911e-06 -4.01411e-07 7.49857e-07
-2.01722e-06 -4.66049e-07 6.06492e-07
-8.42734e-06 -2.011e-06 4.5958e-06
-3.07085e-06 -8.99003e-07 1.40572e-06
0.00111162 -0.000399356 -0.00048456
-4.58347e-06 -1.94751e-06 3.41123e-06
-2.52798e-07 -7.18956e-08 1.0295e-07
-8.73382e-06 -2.53705e-06 5.58131e-06
-6.41463e-06 -2.42371e-06 5.6258e-06
-4.45146e-06 -1.32397e-06 3.06189e-06
-5.89817e-06 -1.40817e-06 2.87402e-06
-8.14829e-06 -5.36113e-06 1.14033e-05
-1.68607e-06 -6.52903e-07 1.33752e-06
0.00115813 0.00043658 9.89621e-05
1.21604e-08 -1.4088e-08 6.57683e-08
0.00122847 -4.4686e-06 -0.000357271
0.00223612 -0.000140832 -0.000475412
0.00116417 0.000693774 -0.000576016
3.93329e-08 -2.99801e-07 5.77891e-07
-2.22962e-06 -1.70356e-07 2.4687e-07
-6.7765e-06 -2.30332e-06 4.65838e-06
-8.74718e-06 -1.50241e-06 3.93095e-06
-7.21059e-06 -1.94637e-06 3.99697e-06
-4.38287e-05 -1.50783e-05 2.95046e-05
-5.18046e-06 -2.60164e-06 4.48226e-06
-8.97442e-06 -4.326e-06 7.09681e-06
-3.87783e-06 -2.6222e-06 5.07528e-06
0.00181843 0.000739952 -0.000134862
-1.00975e-05 -4.87136e-06 9.58607e-06
-2.08138e-06 -2.42626e-06 4.16423e-06
-4.30809e-06 -3.93793e-06 7.39767e-06
-4.62033e-07 -2.15684e-07 3.54902e-07
-6.9378e-06 -4.90472e-06 1.04286e-05
-2.53557e-07 -2.16032e-07 3.18521e-07
-3.94116e-06 -2.34798e-06 4.18227e-06
-4.84629e-06 -4.96535e-06 9.50132e-06
-1.14805e-05 -4.65587e-06 8.82044e-06
-1.53791e-05 -5.02483e-06 8.86677e-06
-1.07261e-06 -5.46679e-08 1.05956e-07
1.47048e-07 -2.26325e-06 4.83725e-06
-1.52802e-06 -3.61956e-06 7.38083e-06
-2.10426e-06 -3.52954e-06 7.57122e-06
0.000950849 0.000398035 -0.000228388
-3.99234e-06 -2.77579e-06 5.22071e-06
-3.48881e-06 -3.9689e-07 6.75642e-07
-1.90365e-06 -2.29871e-06 4.79544e-06
-9.88119e-06 -7.08531e-06 1.41703e-05
5.98974e-07 -2.14489e-06 4.52264e-06
-5.87923e-06 -1.87391e-06 3.34631e-06
-1.21031e-05 -5.80817e-06 1.13472e-05
-1.33792e-05 -5.99018e-06 1.2047e-05
-1.85256e-06 -1.43994e-07 2.3449e-07
0.00156538 0.000297594 0.00028298
-8.52228e-07 -8.80277e-08 4.78015e-08
-3.79111e-06 -2.26221e-06 4.81032e-06
1.28815e-06 -1.7845e-06 3.98565e-06
0.00171329 0.000467236 -0.000657059
-7.215e-07 -9.33044e-08 1.09266e-07
-2.57942e-06 -2.13767e-06 3.59158e-06
-3.0606e-06 -1.64246e-06 3.60809e-06
-5.68773e-06 -3.02204e-06 6.64162e-06
-7.91017e-06 -1.77018e-06 3.57612e-06
-8.49862e-06 -2.36998e-06 5.20633e-06
0.000889029 -0.000112307 0.000342301
-4.68491e-07 -2.12095e-08 8.39985e-08
0.00156517 -0.000469068 0.00029416
-3.32683e-06 -2.04394e-06 3.69601e-06
-2.24872e-06 -2.26988e-06 4.74396e-06
-4.94701e-06 -5.95926e-06 1.20083e-05
-1.38649e-05 -4.66222e-06 1.02351e-05
-6.54898e-06 -1.83187e-06 3.67454e-06
-5.02199e-06 -1.77932e-06 3.39815e-06
-7.92e-06 -3.29846e-06 6.52816e-06
0.00119269 0.000499172 -0.000632494
-1.12485e-05 -2.81162e-06 5.22019e-06
-2.24813e-06 -7.56861e-07 1.0383e-06
-9.89016e-06 -1.0159e-05 1.94789e-05
-4.73942e-06 -4.00232e-06 7.7515e-06
-9.19326e-07 -4.03163e-07 7.42705e-07
-1.90229e-07 -4.2863e-07 7.53292e-07
-4.51628e-07 -1.74461e-08 4.87406e-08
0.00252958 0.000829776 -9.87667e-05
-3.41385e-06 -1.76083e-06 3.70099e-06
-8.34539e-07 -1.64185e-06 3.26969e-06
-5.01914e-06 -1.81713e-06 3.96343e-06
0.00153996 0.000287963 -0.000676484
0.00102994 0.000732346 0.00157195
-4.54735e-06 -1.26428e-06 2.90386e-06
-9.33058e-06 -4.21874e-06 8.62424e-06
-2.05319e-06 -4.92295e-07 6.80034e-07
-1.38955e-06 -2.47513e-07 5.85255e-07
-1.50255e-06 -1.73555e-06 3.11039e-06
-2.8357e-06 -6.92312e-07 1.69153e-06
-6.09505e-06 -2.78303e-06 6.09867e-06
-5.39911e-06 -1.98595e-06 4.35621e-06
-1.38845e-06 -2.19761e-06 4.18918e-06
2.39332e-07 -3.41979e-07 9.07841e-07
4.10239e-07 -1.74744e-06 3.81467e-06
-2.04876e-08 -1.2007e-06 2.57801e-06
2.68035e-07 -8.64739e-07 1.91962e-06
-4.00944e-06 -3.66082e-06 7.26142e-06
-2.24712e-06 -1.58205e-06 2.8202e-06
-3.62616e-06 -5.02965e-07 1.15898e-06
-5.02618e-06 -8.7463e-07 2.31332e-06
-2.11601e-06 -3.76025e-07 9.17379e-07
-3.58606e-06 -1.55084e-06 3.51048e-06
-2.09891e-06 -3.43642e-07 3.87918e-07
-4.24711e-06 -3.46904e-06 6.90781e-06
0.0017827 -0.000156412 0.000176572
-1.04298e-05 -4.24182e-06 8.95956e-06
-1.69596e-06 -3.11833e-06 6.00359e-06
-4.67525e-06 -4.17959e-06 7.83463e-06
0.00143123 -0.000134558 -0.000402157
-1.35356e-06 -2.35437e-07 4.67556e-07
-5.73193e-06 -1.71956e-06 3.25847e-06
-1.10508e-05 -3.44012e-06 7.0815e-06
-7.03546e-06 -2.32861e-06 4.96945e-06
-2.4193e-06 -1.48533e-06 2.80134e-06
-4.78774e-06 -2.47777e-06 4.51383e-06
-1.00003e-06 -1.12158e-06 2.03346e-06
-3.1981e-06 -1.69891e-06 3.53011e-06
-2.65464e-06 -2.91773e-07 9.88628e-07
-6.22889e-08 -6.52369e-07 1.45703e-06
-1.26986e-06 -2.93502e-07 3.21904e-07
-1.80602e-06 -3.72744e-07 4.42117e-07
-2.38734e-06 -2.62398e-06 5.05319e-06
1.47845e-08 -1.13549e-06 2.50083e-06
-4.0956e-06 -2.67962e-06 5.35516e-06
-1.43487e-07 -1.29971e-06 2.76089e-06
-1.12069e-06 -2.28407e-06 4.85061e-06
0.00139347 -0.00014283 -5.77984e-06
-4.25387e-07 -8.53251e-08 1.65978e-07
0.00134924 -0.00066199 -9.80503e-05
6.52234e-07 -5.11214e-07 1.16499e-06
4.43702e-07 -8.8156e-07 1.71971e-06
-3.12962e-06 -2.20746e-06 4.51804e-06
-6.09328e-07 -1.51508e-06 2.99191e-06
-3.89582e-06 -1.4869e-06 2.26486e-06
-3.92684e-06 -1.20896e-06 1.90106e-06
-1.02599e-07 -5.24774e-08 5.45615e-08
-1.49204e-06 -2.01772e-06 3.76227e-06
-5.91912e-06 -2.7353e-06 5.7397e-06
-2.48384e-06 -2.06583e-06 4.19421e-06
-5.59986e-06 -1.27908e-06 2.77365e-06
-9.71111e-07 -2.33882e-07 3.77849e-07
-6.81429e-06 -2.68233e-06 5.45952e-06
-2.83751e-06 -5.43974e-07 9.98535e-07
-3.70097e-07 -1.06664e-06 2.19714e-06
-8.92136e-07 -2.90278e-06 6.08e-06
-2.22105e-06 -9.97196e-07 2.03844e-06
-6.50125e-06 -3.44326e-06 7.06118e-06
-1.85466e-07 -8.54839e-07 1.61331e-06
-5.86822e-06 -2.29232e-06 4.07278e-06
-4.98347e-07 -3.28027e-07 5.23754e-07
0.00174506 0.000325782 0.000594708
-3.41064e-06 -6.86644e-07 1.72673e-06
-3.93886e-06 -1.03285e-06 1.72745e-06
-3.59332e-06 -1.26588e-06 2.17993e-06
-8.78032e-07 -6.72923e-07 1.11392e-06
-2.55291e-06 -7.26666e-07 9.00224e-07
-5.1247e-06 -1.18804e-06 2.25991e-06
0.00200185 -0.00125936 3.18449e-05
0.00216526 0.000712834 -0.00106589
1.18538e-07 -6.50444e-07 1.67657e-06
-3.59375e-06 -2.26586e-06 4.22084e-06
-1.55454e-06 -7.00674e-07 1.1245e-06
-4.16757e-06 -2.64117e-06 5.40299e-06
-3.81117e-06 -1.20317e-06 2.14089e-06
-5.65782e-06 -1.28316e-06 3.08997e-06
-2.56193e-06 -2.98981e-06 5.92417e-06
0.000638499 0.000762603 -0.000143396
-2.3887e-07 -2.07834e-06 4.37556e-06
-2.23459e-07 -1.83215e-07 2.66115e-07
0.000804405 9.89148e-05 -0.000996468
-1.39883e-06 -3.97622e-07 9.03161e-07
0.0019651 -0.0011584 0.000158666
-1.80442e-06 -2.69994e-06 5.63394e-06
-7.26394e-07 -1.62112e-06 3.33391e-06
0.000830167 -0.00102135 6.71949e-05
-5.56949e-07 -8.82355e-07 1.72314e-06
0.000681679 0.00113838 -0.000129984
-1.53297e-06 -8.94079e-07 1.67471e-06
-1.35409e-06 -8.43086e-07 1.87014e-06
5.0466e-07 -5.69332e-07 1.46302e-06
-5.53837e-06 -3.02781e-06 6.0312e-06
-3.90324e-07 -3.57848e-07 5.86749e-07
0.000677403 -0.000202276 0.000797966
-5.24719e-06 -1.35641e-06 2.17025e-06
-1.61993e-06 -3.15264e-07 6.44761e-07
-2.14463e-06 -9.01496e-07 1.76375e-06
0.000452853 -0.000410163 0.00100084
-3.06949e-07 -1.72698e-06 3.7729e-06
-1.1437e-06 -2.2736e-06 4.78984e-06
-1.893e-06 -9.20954e-07 1.77545e-06
-5.40737e-07 -8.65921e-07 1.73831e-06
-2.29713e-07 -8.46059e-08 5.54607e-08
0.00118023 0.00045701 0.000186534
0.000756916 -0.00101433 0.000107927
0.000801548 -0.000983139 2.34028e-05
-1.06396e-08 -1.71845e-06 3.74602e-06
-6.2468e-07 -7.11514e-07 1.55297e-06
-2.64946e-07 -5.96142e-07 9.37847e-07
-2.46768e-06 -9.65881e-07 2.14157e-06
0.000653603 0.000598054 2.63199e-05
0.000527154 0.000429442 -0.000522321
-6.37392e-07 -7.3148e-08 7.29479e-08
-1.01025e-06 -8.15445e-08 9.69019e-08
-4.08102e-06 -1.90216e-06 4.28426e-06
-7.69519e-07 -1.06445e-07 1.23441e-07
0.000735469 -0.00033106 -0.000247829
-4.85894e-06 -2.31588e-06 5.09623e-06
2.88851e-07 -3.98189e-07 9.10171e-07
-3.50515e-06 -2.96112e-06 5.43876e-06