# vtk DataFile Version 4.2
vtk output
ASCII
DATASET UNSTRUCTURED_GRID

POINTS 343 double
0.00161161 0.00421625 -2.06336e-05
0.00311693 0.00502402 0.00213524
0 0.00419538 0.00112517
0.00277461 0.00199114 0.00190657
0.00744696 0.00251129 0.0049391
0.00744378 0.00393221 0.00630359
0.010975 0.00492912 0.00486245
0.00896121 0.00497474 0.00358074
0.00984643 0.00342704 0.00678979
0.00717989 0.00509058 0.00490973
0.00602035 0.00120221 0.00992086
0.00760635 0.00218687 0.00780694
0.00603994 7.7882e-05 0.0082406
0.0028905 0.00204017 0.00799669
0.00616796 0.00261739 0.00991857
0.0100053 0.00658436 0.00682021
0.00922653 0.00630941 0.00506785
0.00324946 0.00222771 0.0051048
0 0.00143586 0.00417514
0.00228974 0.00349618 0.00400771
0.0098521 0.00333325 0.00304063
0.0111647 0.00237403 0.00492506
0 0.00270918 0.00154168
0.00599687 0.00151376 -7.19425e-05
0.00721834 0.00228971 0.00210879
0.00570479 0.00360523 0.00153275
0.0019352 2.43958e-05 0.00403553
0.00603629 7.8454e-05 0.00161342
0.00377279 0.00700232 -4.61001e-05
0.00277798 0.00808951 0.00190886
0.00587781 0.00632756 0.00157234
0.0115066 0.00814279 0.00784972
0.0114658 0.00497661 0.00787532
0.0120684 0.00624832 0.00579591
0.0143704 0.00901872 0.00401674
0.0108967 0.00778524 0.00482792
0.0123139 0.0101493 0.00401489
0.0114757 0.00812932 0.00187666
0.00508584 0.00310493 0.00689551
0.00638323 0.00374833 0.00824159
0.00560581 0.00167859 0.00589859
0.00718952 0.00776475 0.00758473
0.00285099 0.00804544 0.00795345
0.00405204 0.0100502 0.00707539
0.00562166 0.00847425 0.00588632
0 0.00695361 0.00262895
0.0023617 0.00627047 0.00405758
0 0.0040177 0.00850214
0.00332186 0.00502917 0.00761942
0.00205561 0.00420082 0.00997387
0.0103152 0.00725835 0.00986369
0.00879747 0.00609065 0.00830401
0.00294158 0.00798033 0.00470402
0.00436909 0.00700137 0.00641265
0.00227618 0.00610832 0.00589685
0.0143655 0.00598476 0.00812665
0 0.00718191 0.00711644
0.00227357 0.00580397 -2.8882e-05
0 0.00577432 0.00158701
0.0143668 0.00735559 0.00692978
0.00412014 0.00340361 0.00994546
0.0143639 0.00162315 0.00399942
0.0115903 0.00211115 0.00183947
0.0120849 0.00367446 0.00384959
0.00536718 0.00172285 0.00406048
0.00216023 0.0100277 0.00578713
0.00404836 5.24828e-05 0.00707705
0.00879305 0.00429273 0.00826255
0.0143666 0.00744975 0.00401955
0.0123056 0.000156911 0.00401637
0.00481267 0.00293608 -5.80734e-05
0.00388338 0.0015911 0.00994881
0.00406362 5.29203e-05 0.00278066
0.00689873 0.00528748 0.00746584
0.00454323 0.00320758 0.00310931
0 0.00849157 0.00581511
0.00700406 0.00376628 0.00369842
0.00220896 0.00273781 -2.79728e-05
0.00832996 0.00842749 0.00988947
0.00859184 0.0101046 0.00839428
0.00604501 0.0100743 0.00823941
0.00576561 0.00857484 0.00992319
0.0143681 0.00866088 0.00563183
0.00452025 0.00689444 0.00309248
0 0.00748929 0.00137438
0.00196826 0.00751499 -2.51582e-05
0 0.00287343 0.00335182
0 0.00580816 0.00831736
0 0.00429792 0.00253898
0.00364318 0.00434521 -4.44959e-05
0.00205514 0.00584566 0.00997378
0.00743903 0.00656944 0.00630572
0.00517436 0.00657793 0.00816705
0.00998584 0.00275415 0.00986834
0.0115306 0.00210533 0.00788681
0.0100187 0.000128786 0.0029591
0.00865154 0.00177592 0.0035058
0.0143644 0.00305685 0.00317767
0 0.00140616 0.00256446
0.00915919 0.00834077 0.00630458
0.00836412 0.00154407 -9.94848e-05
0.00867752 0.00366312 0.00149785
0.0045269 0.0100559 0.00576663
0.0123048 0.0101495 0.00567682
0.00367998 0.00145409 -4.48247e-05
0.00858937 0.000111151 0.00138972
0.00902828 0.00839951 0.00350454
0.0122972 0.000156828 0.00567819
0.0089171 0.00178752 0.00625266
0.00201256 0.00258961 0.0099743
0.0102353 0.0073088 -0.000122497
0.00742569 0.00778316 0.00207652
0.00854375 0.00620115 0.00149766
0 0.00686719 0.00578184
0.0143668 0.00159413 0.00239336
0.00254423 0.00364302 0.00637546
0.0143719 0.0086559 0.00245046
0.0120919 0.00633905 0.00398335
0.00859684 0.0101053 0.00138793
0.0100145 0.000128515 0.00679993
0.0143629 0.00162233 0.00563733
0.0120682 0.00372553 0.0059081
0.00215965 2.72147e-05 0.00578794
0 0.0013659 0.00748679
0.00196003 2.47671e-05 0.00750451
0.0143657 0.00704226 0.00559801
0.00836293 0.00859557 -0.000100974
0 0.0075208 0.00859127
0.00195545 0.00751153 0.00997507
0.00607655 0.0082817 0.0035507
0.0123531 0.0101486 0.00735238
0.0143704 0.00879889 0.00733761
0.00829164 0.00169317 0.00989069
0.0104304 0.00431899 0.00986211
0 0.0057735 0.00666667
0.00196101 0.0100251 0.00750358
0 0.00863025 0.00752641
0.0123467 0.000158943 0.00235756
0.0143681 0.00712973 0.00245627
0.012163 0.00649238 0.00201596
0.0122317 0.00597503 0.00983926
0.0107615 0.00151189 0.00985858
0.0123453 0.000158531 0.00735432
0.0143645 0.00155276 0.00729963
0 0.00143551 0.00581971
0.00858412 0.000110534 0.00839538
0.00604928 7.83868e-05 0.00332429
0.0114084 0.00485148 0.00189684
0.0143658 0.00447862 0.0023679
0.0060701 0.0100745 0.0065884
0.00406619 0.01005 0.00277923
0.00188034 2.39587e-05 0.00239428
0 0.00727418 0.00419576
0.0143644 0.00595065 0.00648073
0.0100266 0.0101221 0.00295709
0.010791 0.00876751 0.00985724
0 0.00574334 0.00336387
0 0.0043297 0.00416652
0.00986986 0.00590667 0.00986963
0.0143625 0.00320497 0.0067306
0.00606444 7.84664e-05 0.00659011
0.00355255 0.0100439 0.00856535
0.0107644 0.00150526 -0.000127259
0.00829356 0.00676975 0.00989014
0.0143693 0.00769339 0.00839888
0.0123762 0.00770372 0.00983675
0.00994192 0.00314986 -0.000117785
0.00483029 0.00580581 -5.84793e-05
0.0108281 0.00876346 -0.000128996
0.0108103 0.0101312 0.00125597
0.00831329 0.00697134 -9.99355e-05
0.0100269 0.00649633 0.00290967
0.0108026 0.000140081 0.00125716
0.0041361 0.0050509 0.00994539
0.0062155 0.00591144 0.00991754
0.00621411 0.00424468 0.00991774
0.0108063 0.0101298 0.00847534
0.00354916 4.57223e-05 0.00856664
0.0143657 0.00592137 0.00318977
0 0.00302218 0.00691532
0.0143644 0.00419907 0.00831024
0.0122275 0.00417307 -0.000143655
0.0143684 0.00289314 0.00137561
0 0.00244495 0.00857025
0.00350611 0.00861404 0.0099537
0.0107982 0.000139299 0.00847681
0.0121992 0.00277816 0.00983962
0.0127217 0.00435351 0.00983214
0.00814859 0.0100995 0.00572938
0.00745083 0.00767661 0.00493807
0.00810982 0.0100989 0.00411247
0.0100222 0.0101219 0.00679847
0.0043352 0.00697032 0.00994263
0.00598549 0.0044071 -7.17635e-05
0.004067 5.25157e-05 0.00435355
0.00452283 5.86866e-05 0.00576883
0.0143699 0.00437683 0.00096016
0.00522466 0.00840339 0.0015228
0.0143638 0.00450976 0.00398973
0.00958615 0.00589369 -0.000114708
0.0123546 0.0101495 0.00235607
0 0.00848692 0.00262374
0.00193551 0.0100251 0.0040347
0 0.00885053 0.00419359
0.00602706 0.00892577 -7.33014e-05
0.00604127 0.0100742 0.00161207
0.0071822 0.00488337 0.00229023
0.0103809 0.00465319 -0.000123107
0.00810238 0.000104493 0.00411501
0.00814159 0.000105039 0.00573137
0.00188029 0.0100241 0.00239331
0.0123247 0.00260347 -0.000145104
0.014363 0.0047018 0.00703285
0.010229 0.0101246 0.00487104
0.00824776 0.00346826 0.00989087
0.00352615 4.61677e-05 0.00131241
0.0143654 0.00262964 0.00837805
0.00343448 0.00483518 0.00495615
0.00838485 0.00443728 -9.9811e-05
0.0119635 0.00595671 -0.000140643
0.00787279 0.0100961 0.00711899
0.0143624 0.00451009 0.00565122
0.00776602 0.010095 0.00267832
0.0102214 0.00013108 0.00487269
0.0040697 0.0100503 0.00435149
0 0.00452174 0.00721958
0.00649125 0.00730089 0.00991375
0.00786579 0.000101488 0.00712013
0.00517208 0.00514029 0.00353053
0.00610651 0.0100746 0.00492976
0.00610073 7.91953e-05 0.00493233
0.00526813 0.00528389 0.0061079
0 0.005744 0.00499998
0 0.00433013 0.00583333
0.00718618 0.00583566 -8.61657e-05
0.00716152 0.0064299 0.00346374
0.00775887 0.000100239 0.00268024
0.0143642 0.00592071 0.00481991
0.00529745 0.00647574 0.00477651
0.00824961 0.00510318 0.00989077
0.0143698 0.00595145 0.00142019
0 0.00666667 0
0.0123593 0.00767219 -0.000145431
0.00478567 6.28606e-05 -5.76579e-05
0 0.01 0.00666667
0.00718364 0.0100869 0.00990492
0 0.00288419 0.00499914
0.0143725 0.00766319 0.00120773
0.0143759 0.00684162 -0.000164164
0 0.005 0.01
0.00718322 0.00297708 -8.5713e-05
0 0.005 0
0.0143701 0.000191451 0.00316018
0.0143774 0.0101639 0.00647981
0.00602901 0.00735053 -7.29283e-05
0.0143629 0.0030678 0.00481982
0.007184 9.41809e-05 -8.61478e-05
0 0 0.00666667
0.00545195 0.00368641 0.0051573
0.00717749 9.24549e-05 0.00990609
0.0143683 0.000190902 0.00648201
0 0 0.005
0.012633 0.0101516 0.00106984
0.0143772 0.00894871 0.00105405
0.0143684 0.000190867 0.00482055
0.0143747 0.00517975 -0.000163002
0.0017477 0.00124254 -2.21335e-05
0 0.00122008 0.00122008
0 0.00333333 0.01
0 0.00666667 0.01
0.0126327 0.00893253 -0.000148617
0.0143788 0.0101635 0.00315767
0.00605454 0.0100741 0.00332207
0.0143734 0.00684109 0.00980268
0 0.00333333 0
0 0.00122008 0.00877992
0.00174594 2.20831e-05 0.00875825
0.00174577 0.00124209 0.0099777
0.0126282 0.0101502 0.00861371
0.00174672 0.00880203 0.00997759
0 0.00877992 0.00877992
0.0143735 0.00894738 0.00858722
0.00959137 0.0101165 -0.000116156
0.0143712 0.00140936 0.0010541
0.00174717 0.0100221 0.00875758
0.0126272 0.00893044 0.00983251
0.0143719 0.00517831 0.00980328
0 0 0.00333333
0.00958316 0.000125056 -0.000114199
0.0126245 0.000164342 0.00107026
0.00173539 2.22898e-05 0.00118978
0 0.00877992 0.00122008
0.00174697 0.00880266 -2.23986e-05
0.00173513 0.0100221 0.00118889
0.0143675 0.00140786 0.00858798
0.0126213 0.00138289 0.0098336
0.00957591 0.000123442 0.00987453
0.0126268 0.00138472 -0.000148145
0.0126203 0.000163155 0.0086153
0.0143745 0.00351712 -0.000162707
0.00478474 0.0100581 0.00993652
0.00352788 0.0100436 0.00131128
0.00958408 0.0101152 0.00987348
0.0143706 0.00351508 0.00980311
0 0.01 0.005
0.00376585 0.00853484 -4.63058e-05
0.0143773 0.0101636 0.0048201
0 0.01 0.00333333
0 0.00166667 0
0.0143735 0.000191323 0.00149903
0 0.00166667 0.01
0 0.00833333 0
0.0143802 0.00850449 -0.000164774
0.0143701 0.00019053 0.00814388
0.0143825 0.0101654 0.00149883
0.0143791 0.0101642 0.00814216
0.0023886 0.0100292 0.00996897
0 0.01 0.00833333
0.0119936 0.0101439 -0.000142535
0.011985 0.000157113 -0.000141675
0.0119791 0.000155239 0.00984293
0.0119872 0.0101421 0.00984165
0 0 0.00833333
0.0143768 0.00850148 0.00980362
0.00238916 3.15105e-05 -2.97333e-05
0 0 0.00166667
0.00478889 0.0100591 -5.87618e-05
0.0143715 0.00185393 0.00980437
0.0143758 0.001856 -0.000163531
0.00238615 3.05707e-05 0.0099696
0.00238934 0.0100299 -3.02981e-05
0 0.01 0.00166667
0.0143824 0.0101658 0.00980502
0 0 0.01
0.0143872 0.0101664 -0.000166061
0.014374 0.00018935 0.00980696
0 0.01 0.01
0.0143789 0.000191063 -0.000165116
0 0.01 0
0 0 0
0.00718996 0.0100878 -8.78138e-05
0.00478049 6.16018e-05 0.00993727
0 0.00833333 0.01

CELLS 343 686
1 0
1 1
1 2
1 3
1 4
1 5
1 6
1 7
1 8
1 9
1 10
1 11
1 12
1 13
1 14
1 15
1 16
1 17
1 18
1 19
1 20
1 21
1 22
1 23
1 24
1 25
1 26
1 27
1 28
1 29
1 30
1 31
1 32
1 33
1 34
1 35
1 36
1 37
1 38
1 39
1 40
1 41
1 42
1 43
1 44
1 45
1 46
1 47
1 48
1 49
1 50
1 51
1 52
1 53
1 54
1 55
1 56
1 57
1 58
1 59
1 60
1 61
1 62
1 63
1 64
1 65
1 66
1 67
1 68
1 69
1 70
1 71
1 72
1 73
1 74
1 75
1 76
1 77
1 78
1 79
1 80
1 81
1 82
1 83
1 84
1 85
1 86
1 87
1 88
1 89
1 90
1 91
1 92
1 93
1 94
1 95
1 96
1 97
1 98
1 99
1 100
1 101
1 102
1 103
1 104
1 105
1 106
1 107
1 108
1 109
1 110
1 111
1 112
1 113
1 114
1 115
1 116
1 117
1 118
1 119
1 120
1 121
1 122
1 123
1 124
1 125
1 126
1 127
1 128
1 129
1 130
1 131
1 132
1 133
1 134
1 135
1 136
1 137
1 138
1 139
1 140
1 141
1 142
1 143
1 144
1 145
1 146
1 147
1 148
1 149
1 150
1 151
1 152
1 153
1 154
1 155
1 156
1 157
1 158
1 159
1 160
1 161
1 162
1 163
1 164
1 165
1 166
1 167
1 168
1 169
1 170
1 171
1 172
1 173
1 174
1 175
1 176
1 177
1 178
1 179
1 180
1 181
1 182
1 183
1 184
1 185
1 186
1 187
1 188
1 189
1 190
1 191
1 192
1 193
1 194
1 195
1 196
1 197
1 198
1 199
1 200
1 201
1 202
1 203
1 204
1 205
1 206
1 207
1 208
1 209
1 210
1 211
1 212
1 213
1 214
1 215
1 216
1 217
1 218
1 219
1 220
1 221
1 222
1 223
1 224
1 225
1 226
1 227
1 228
1 229
1 230
1 231
1 232
1 233
1 234
1 235
1 236
1 237
1 238
1 239
1 240
1 241
1 242
1 243
1 244
1 245
1 246
1 247
1 248
1 249
1 250
1 251
1 252
1 253
1 254
1 255
1 256
1 257
1 258
1 259
1 260
1 261
1 262
1 263
1 264
1 265
1 266
1 267
1 268
1 269
1 270
1 271
1 272
1 273
1 274
1 275
1 276
1 277
1 278
1 279
1 280
1 281
1 282
1 283
1 284
1 285
1 286
1 287
1 288
1 289
1 290
1 291
1 292
1 293
1 294
1 295
1 296
1 297
1 298
1 299
1 300
1 301
1 302
1 303
1 304
1 305
1 306
1 307
1 308
1 309
1 310
1 311
1 312
1 313
1 314
1 315
1 316
1 317
1 318
1 319
1 320
1 321
1 322
1 323
1 324
1 325
1 326
1 327
1 328
1 329
1 330
1 331
1 332
1 333
1 334
1 335
1 336
1 337
1 338
1 339
1 340
1 341
1 342

CELL_TYPES 343
1
1
1
1
1
1
1
1
1
1
1
1
1
1
1
1
1
1
1
1
1
1
1
1
1
1
1
1
1
1
1
1
1
1
1
1
1
1
1
1
1
1
1
1
1
1
1
1
1
1
1
1
1
1
1
1
1
1
1
1
1
1
1
1
1
1
1
1
1
1
1
1
1
1
1
1
1
1
1
1
1
1
1
1
1
1
1
1
1
1
1
1
1
1
1
1
1
1
1
1
1
1
1
1
1
1
1
1
1
1
1
1
1
1
1
1
1
1
1
1
1
1
1
1
1
1
1
1
1
1
1
1
1
1
1
1
1
1
1
1
1
1
1
1
1
1
1
1
1
1
1
1
1
1
1
1
1
1
1
1
1
1
1
1
1
1
1
1
1
1
1
1
1
1
1
1
1
1
1
1
1
1
1
1
1
1
1
1
1
1
1
1
1
1
1
1
1
1
1
1
1
1
1
1
1
1
1
1
1
1
1
1
1
1
1
1
1
1
1
1
1
1
1
1
1
1
1
1
1
1
1
1
1
1
1
1
1
1
1
1
1
1
1
1
1
1
1
1
1
1
1
1
1
1
1
1
1
1
1
1
1
1
1
1
1
1
1
1
1
1
1
1
1
1
1
1
1
1
1
1
1
1
1
1
1
1
1
1
1
1
1
1
1
1
1
1
1
1
1
1
1
1
1
1
1
1
1
1
1
1
1
1
1
1
1
1
1
1
1
1
1
1
1
1
1
1
1
1
1
1
1
1
1
1
1
1
1
1
1
1
1
1
1

POINT_DATA 343
FIELD FieldData 8

NodeID_(#) 1 343 int
0
1
2
3
4
5
6
7
8
9
10
11
12
13
14
15
16
17
18
19
20
21
22
23
24
25
26
27
28
29
30
31
32
33
34
35
36
37
38
39
40
41
42
43
44
45
46
47
48
49
50
51
52
53
54
55
56
57
58
59
60
61
62
63
64
65
66
67
68
69
70
71
72
73
74
75
76
77
78
79
80
81
82
83
84
85
86
87
88
89
90
91
92
93
94
95
96
97
98
99
100
101
102
103
104
105
106
107
108
109
110
111
112
113
114
115
116
117
118
119
120
121
122
123
124
125
126
127
128
129
130
131
132
133
134
135
136
137
138
139
140
141
142
143
144
145
146
147
148
149
150
151
152
153
154
155
156
157
158
159
160
161
162
163
164
165
166
167
168
169
170
171
172
173
174
175
176
177
178
179
180
181
182
183
184
185
186
187
188
189
190
191
192
193
194
195
196
197
198
199
200
201
202
203
204
205
206
207
208
209
210
211
212
213
214
215
216
217
218
219
220
221
222
223
224
225
226
227
228
229
230
231
232
233
234
235
236
237
238
239
240
241
242
243
244
245
246
247
248
249
250
251
252
253
254
255
256
257
258
259
260
261
262
263
264
265
266
267
268
269
270
271
272
273
274
275
276
277
278
279
280
281
282
283
284
285
286
287
288
289
290
291
292
293
294
295
296
297
298
299
300
301
302
303
304
305
306
307
308
309
310
311
312
313
314
315
316
317
318
319
320
321
322
323
324
325
326
327
328
329
330
331
332
333
334
335
336
337
338
339
340
341
342

Component_(#) 1 343 int
0
0
0
0
0
0
0
0
0
0
0
0
0
0
0
0
0
0
0
0
0
0
0
0
0
0
0
0
0
0
0
0
0
0
0
0
0
0
0
0
0
0
0
0
0
0
0
0
0
0
0
0
0
0
0
0
0
0
0
0
0
0
0
0
0
0
0
0
0
0
0
0
0
0
0
0
0
0
0
0
0
0
0
0
0
0
0
0
0
0
0
0
0
0
0
0
0
0
0
0
0
0
0
0
0
0
0
0
0
0
0
0
0
0
0
0
0
0
0
0
0
0
0
0
0
0
0
0
0
0
0
0
0
0
0
0
0
0
0
0
0
0
0
0
0
0
0
0
0
0
0
0
0
0
0
0
0
0
0
0
0
0
0
0
0
0
0
0
0
0
0
0
0
0
0
0
0
0
0
0
0
0
0
0
0
0
0
0
0
0
0
0
0
0
0
0
0
0
0
0
0
0
0
0
0
0
0
0
0
0
0
0
0
0
0
0
0
0
0
0
0
0
0
0
0
0
0
0
0
0
0
0
0
0
0
0
0
0
0
0
0
0
0
0
0
0
0
0
0
0
0
0
0
0
0
0
0
0
0
0
0
0
0
0
0
0
0
0
0
0
0
0
0
0
0
0
0
0
0
0
0
0
0
0
0
0
0
0
0
0
0
0
0
0
0
0
0
0
0
0
0
0
0
0
0
0
0
0
0
0
0
0
0
0
0
0
0
0
0
0
0
0
0
0
0
0
0
0
0
0
0
0
0
0
0
0
0
0
0
0
0
0
0

NodalMass_(kg) 1 343 double
3.15563e-06
1.41304e-05
2.20912e-06
1.71484e-05
8.42e-06
9.09306e-06
1.01179e-05
7.52198e-06
6.81096e-06
5.58223e-06
3.10888e-06
1.07575e-05
4.87011e-06
1.64955e-05
3.0246e-06
8.05984e-06
6.703e-06
1.0877e-05
4.18978e-06
8.16106e-06
6.14143e-06
1.17902e-05
2.23114e-06
4.25176e-06
1.09915e-05
7.41467e-06
4.21871e-06
3.92484e-06
3.08766e-06
1.31268e-05
7.72627e-06
1.65404e-05
1.19037e-05
7.97564e-06
3.81683e-06
1.11001e-05
3.81317e-06
1.39137e-05
6.37414e-06
8.00975e-06
7.6712e-06
1.21135e-05
1.6399e-05
2.78633e-06
8.93599e-06
2.58087e-06
7.57362e-06
4.23241e-06
1.31286e-05
3.80168e-06
2.7746e-06
7.16776e-06
1.21307e-05
5.11765e-06
8.19728e-06
4.58094e-06
2.79503e-06
3.26126e-06
4.12443e-06
2.11915e-06
3.35177e-06
3.61669e-06
1.56838e-05
7.33679e-06
8.24695e-06
5.00369e-06
2.82625e-06
7.20276e-06
3.26815e-06
4.18751e-06
2.02785e-06
2.42152e-06
3.11835e-06
5.97459e-06
5.87101e-06
4.09374e-06
5.45463e-06
2.28825e-06
4.49759e-06
4.38192e-06
4.50892e-06
4.39234e-06
4.27273e-06
5.32031e-06
1.53201e-06
2.38869e-06
2.02885e-06
4.38798e-06
3.17972e-06
3.14298e-06
4.61567e-06
5.87645e-06
8.18088e-06
2.48341e-06
1.53815e-05
3.49683e-06
7.35227e-06
2.01314e-06
2.0408e-06
7.98183e-06
4.41293e-06
7.1389e-06
1.20123e-06
5.03343e-06
1.61257e-06
4.12601e-06
8.73748e-06
4.37849e-06
7.97173e-06
2.13557e-06
3.38137e-06
9.48623e-06
7.40262e-06
1.80226e-06
2.10222e-06
7.98889e-06
1.87983e-06
7.44814e-06
4.19782e-06
2.37156e-06
4.31705e-06
6.06441e-06
4.30905e-06
2.16843e-06
1.8986e-06
1.81294e-06
3.89762e-06
2.44299e-06
1.65628e-06
8.01374e-06
1.64513e-06
2.3931e-06
3.01363e-06
2.99431e-06
1.36541e-06
1.87293e-06
2.09622e-06
1.94762e-06
1.87618e-06
6.37913e-06
4.58628e-06
2.02767e-06
1.61999e-06
2.41284e-06
3.8865e-06
4.44973e-06
2.29839e-06
1.17349e-05
3.11811e-06
1.354e-06
3.45063e-06
1.81846e-06
2.9382e-06
1.37381e-06
2.41464e-06
2.10451e-06
2.63927e-06
2.14166e-06
1.7943e-06
3.19976e-06
1.36989e-06
2.43489e-06
2.08158e-06
1.3601e-06
2.17203e-06
1.89924e-06
3.16996e-06
2.6119e-06
2.37677e-06
1.60225e-06
1.90684e-06
5.49206e-06
1.87878e-06
3.14313e-06
2.97301e-06
1.18454e-06
1.89263e-06
2.04166e-06
2.73572e-06
2.42405e-06
3.23083e-06
3.19752e-06
3.2142e-06
1.94492e-06
1.61196e-06
1.86876e-06
3.22435e-06
2.1114e-06
2.96917e-06
6.15288e-06
2.3097e-06
2.39729e-06
2.38029e-06
2.64508e-06
1.66557e-06
1.82377e-06
2.06583e-06
5.73271e-06
2.08467e-06
2.18324e-06
2.43522e-06
3.1188e-06
3.17316e-06
2.05447e-06
1.9592e-06
3.05718e-06
6.44327e-06
2.08796e-06
2.72615e-06
2.15709e-06
1.86812e-06
2.0028e-06
2.10999e-06
2.88994e-06
2.3222e-06
2.3979e-06
1.97629e-06
6.4127e-06
2.16225e-06
3.29198e-06
2.10223e-06
2.66566e-06
1.94415e-06
2.91865e-06
2.58116e-06
2.11703e-06
2.09534e-06
1.91719e-06
7.06046e-06
2.25203e-06
2.06378e-06
6.28159e-06
2.12147e-06
2.90924e-06
2.12921e-06
6.4487e-06
1.41701e-06
2.0682e-06
6.58062e-06
2.52584e-06
2.39732e-06
7.42191e-07
2.22368e-06
7.06751e-07
7.00657e-07
8.93749e-07
2.53536e-06
2.26535e-06
1.33607e-06
7.84725e-07
2.32303e-06
6.06694e-07
6.68276e-07
6.84307e-07
2.51242e-06
2.31629e-06
7.8367e-07
6.80839e-07
6.22692e-06
6.7471e-07
6.65305e-07
7.01158e-07
1.8232e-06
1.90695e-06
6.86722e-07
7.04792e-07
1.86445e-06
2.28572e-06
6.8045e-07
7.16005e-07
1.82373e-06
6.01079e-07
2.02791e-06
7.4579e-07
5.74423e-07
1.80052e-06
1.454e-06
2.2702e-06
1.80636e-06
2.15356e-06
1.79089e-06
1.79456e-06
6.8231e-07
2.24737e-06
1.45239e-06
1.79556e-06
6.97875e-07
6.24265e-07
6.62717e-07
1.44627e-06
1.40138e-06
2.15258e-06
1.82851e-06
1.3994e-06
1.43932e-06
2.19226e-06
6.97732e-07
1.77726e-06
1.79162e-06
6.54258e-07
7.3397e-07
2.34895e-06
7.10392e-07
6.56982e-07
6.26314e-07
2.18926e-06
6.12493e-07
6.03901e-07
5.92831e-07
5.12031e-07
5.11667e-07
4.9467e-07
4.97016e-07
4.96269e-07
5.33079e-07
4.94191e-07
4.97855e-07
4.86862e-07
4.90626e-07
4.94649e-07
4.94954e-07
4.91922e-07
4.89615e-07
4.96354e-07
4.95189e-07
4.82188e-07
1.10854e-06
5.3299e-07
5.44763e-07
5.36655e-07
5.15417e-07
5.01772e-07
5.53774e-07
5.53774e-07
5.53774e-07
5.53774e-07
5.53774e-07
5.53774e-07
5.50785e-07
5.50785e-07
7.45291e-07
7.11668e-07
4.9897e-07

NodalForce_(N) 3 343 double
2.63696e-08 5.01698e-09 1.69649e-09
1.20485e-07 5.92725e-08 4.82383e-08
0.000272221 2.06451e-05 0.000581819
2.53565e-07 5.54007e-08 3.62241e-08
1.40611e-07 2.35857e-07 2.64452e-07
-7.81365e-08 2.34458e-07 3.24206e-07
1.43294e-09 5.6615e-07 7.89734e-07
1.17982e-07 2.91399e-07 3.71875e-07
-8.7152e-08 3.07031e-07 4.46576e-07
-1.28335e-08 1.3516e-07 1.67175e-07
-6.74205e-08 5.89198e-08 1.02009e-07
-1.29302e-07 3.00091e-07 4.66599e-07
-8.00012e-10 9.03915e-08 1.49541e-07
-3.32345e-08 3.90309e-08 5.19558e-08
-9.15696e-08 5.43677e-08 1.03843e-07
-3.37624e-07 3.66096e-07 5.59088e-07
-9.97528e-08 2.67942e-07 3.67723e-07
7.7328e-08 5.08209e-08 5.89081e-08
0.000798852 0.000621881 0.000347447
4.1961e-08 1.61655e-08 1.97081e-08
2.36049e-07 2.88377e-07 3.71359e-07
2.60696e-07 6.79504e-07 9.4648e-07
0.00176096 -0.000362582 0.00036551
2.56293e-07 9.32969e-08 1.11524e-07
5.08489e-07 3.02732e-07 3.69622e-07
2.41156e-07 1.16869e-07 1.69008e-07
4.14678e-08 5.7674e-09 7.46471e-09
2.10493e-07 9.02264e-08 9.27805e-08
6.25435e-08 2.3564e-08 3.06063e-08
9.36108e-09 4.75774e-08 3.89991e-08
1.39908e-07 1.28275e-07 1.87683e-07
-1.21489e-06 9.51922e-07 1.55953e-06
-5.2443e-07 6.9975e-07 1.09546e-06
-2.03782e-07 5.23683e-07 7.71989e-07
-8.97377e-08 3.32005e-07 4.95357e-07
-2.88434e-07 5.99125e-07 8.67355e-07
-1.35748e-07 2.53543e-07 3.82913e-07
1.87294e-07 8.54415e-07 1.21252e-06
-2.13773e-08 7.92881e-08 1.03521e-07
-1.78497e-07 1.47468e-07 2.62932e-07
8.4094e-08 1.26966e-07 1.24258e-07
-5.75456e-07 2.84515e-07 4.86764e-07
-2.76351e-07 3.98514e-08 8.44659e-08
-8.6837e-08 2.22878e-08 3.16208e-08
-2.38247e-07 1.38048e-07 1.7387e-07
0.00104198 -1.98873e-05 -0.000348124
-2.94318e-09 1.89168e-08 1.76678e-08
0.000404305 0.000581716 -0.000460555
-1.38805e-07 5.94756e-08 8.12147e-08
-3.75738e-08 7.50035e-09 8.45651e-09
-2.37661e-07 1.27891e-07 2.32326e-07
-3.66672e-07 2.46901e-07 4.31972e-07
-8.2881e-08 4.57225e-08 5.11374e-08
-7.48581e-08 4.09664e-08 5.90042e-08
-4.05742e-08 1.92008e-08 2.28535e-08
-2.56193e-07 3.91894e-07 6.1909e-07
0.000799366 -0.000251462 2.68047e-05
3.36266e-08 9.45563e-09 8.37699e-09
0.00192043 -0.000596344 0.000679259
-1.09098e-07 1.82325e-07 2.83717e-07
-9.18846e-08 2.53503e-08 5.24687e-08
1.62405e-07 3.13536e-07 4.57348e-07
1.09649e-06 9.85356e-07 1.31889e-06
1.98697e-07 4.87102e-07 6.8233e-07
1.80957e-07 1.3403e-07 1.11241e-07
-5.95677e-08 5.12137e-10 1.39535e-08
3.35047e-08 2.39637e-08 2.41815e-08
-2.57721e-07 2.50866e-07 4.28027e-07
-2.83028e-08 2.86812e-07 4.20574e-07
2.34056e-07 2.8526e-07 3.97567e-07
8.64507e-08 2.52969e-08 3.42261e-08
-4.43906e-08 1.6761e-08 3.39088e-08
8.99515e-08 3.43513e-08 2.5998e-08
-1.60679e-07 1.26827e-07 2.12995e-07
8.73013e-08 5.57755e-08 5.78527e-08
0.00132912 -0.000308252 -0.000495142
1.03967e-07 1.30478e-07 1.53768e-07
3.47769e-08 2.74246e-09 5.27527e-09
-3.81755e-07 1.38414e-07 2.71461e-07
-3.59046e-07 1.46045e-07 2.64547e-07
-2.59898e-07 8.28978e-08 1.43158e-07
-2.71262e-07 6.91961e-08 1.43925e-07
-1.90799e-07 3.68251e-07 5.63485e-07
3.71981e-09 5.26628e-08 5.30956e-08
0.00119576 0.000346638 0.00021223
1.21761e-08 3.61524e-09 3.13888e-09
0.00121079 -0.000130728 -0.000286812
0.00186073 -0.000234248 -0.000497008
0.00105281 0.000784587 -0.000566246
8.43138e-08 2.07216e-08 2.88045e-08
-6.41381e-08 7.14225e-09 1.13877e-08
-1.60791e-07 1.50657e-07 2.17961e-07
-2.59706e-07 8.32157e-08 1.86208e-07
-1.10453e-07 1.10992e-07 1.9102e-07
-2.76e-07 9.05548e-07 1.40421e-06
2.29594e-07 1.74104e-07 2.14936e-07
3.05651e-07 2.79613e-07 3.30009e-07
8.92854e-08 1.75871e-07 2.54376e-07
0.00178438 0.000798243 -5.64677e-05
-3.74175e-07 3.09434e-07 4.57828e-07
3.63978e-07 1.65521e-07 2.16239e-07
3.58145e-07 2.66614e-07 3.6264e-07
-3.25905e-08 1.18955e-08 1.48858e-08
-3.05338e-07 3.26086e-07 5.11153e-07
6.14165e-08 1.504e-08 1.62034e-08
3.18148e-07 1.61608e-07 2.01663e-07
-1.00219e-07 3.45142e-07 4.58186e-07
1.35401e-07 2.93683e-07 4.23711e-07
5.49846e-08 3.06057e-07 4.12511e-07
-1.26145e-08 2.00273e-09 4.2253e-09
1.45836e-07 1.74788e-07 2.53648e-07
8.01909e-08 2.69158e-07 3.5843e-07
2.18686e-07 2.66291e-07 3.77352e-07
0.000685799 0.000384953 -0.000442443
1.4558e-07 1.84166e-07 2.63359e-07
-8.91223e-09 1.89842e-08 2.45069e-08
6.05623e-09 1.65993e-07 2.44316e-07
4.14514e-09 4.98654e-07 6.99746e-07
2.06783e-09 1.54593e-07 2.30416e-07
3.20579e-08 1.11756e-07 1.5774e-07
8.72749e-08 3.69183e-07 5.53362e-07
-2.49844e-08 3.97737e-07 5.81305e-07
2.77445e-08 6.16267e-09 8.33462e-09
0.00146246 0.000189042 0.000394158
4.72349e-09 1.07152e-09 1.43177e-09
-5.21461e-08 1.57934e-07 2.37948e-07
1.13256e-07 1.43446e-07 2.09183e-07
0.00167037 0.000463464 -0.000770122
-2.58287e-08 -3.18881e-10 5.76621e-09
-7.55919e-08 1.54646e-07 1.61635e-07
-1.40358e-07 1.06803e-07 1.74111e-07
-1.70924e-07 2.04248e-07 3.24799e-07
-1.0001e-07 1.01244e-07 1.70697e-07
-1.78963e-07 1.43364e-07 2.48799e-07
0.00113774 -0.000181992 0.00041514
-2.5645e-08 2.09831e-09 2.3376e-09
0.00146291 -0.00035224 0.000392303
1.56845e-07 1.35693e-07 1.83013e-07
3.31809e-08 1.68376e-07 2.40898e-07
1.79088e-07 4.42813e-07 6.07388e-07
-3.70686e-07 2.93855e-07 4.92464e-07
-7.35895e-08 1.06769e-07 1.76126e-07
1.11103e-08 1.08078e-07 1.63686e-07
-8.17019e-09 2.02704e-07 3.15353e-07
0.00106191 0.00055395 -0.000750525
-2.23192e-08 1.56359e-07 2.50203e-07
9.429e-08 5.08951e-08 4.45592e-08
5.14306e-07 7.15996e-07 9.77672e-07
1.35661e-07 2.74186e-07 3.93929e-07
-6.1267e-08 2.55766e-08 3.50605e-08
-4.36705e-08 2.50411e-08 3.24226e-08
2.19403e-08 3.95289e-09 -4.09022e-10
0.00232797 0.000730543 -2.70441e-05
-4.36825e-08 1.18892e-07 1.81056e-07
-4.54786e-08 1.14652e-07 1.62395e-07
-2.11141e-07 1.05709e-07 1.92098e-07
0.00151354 0.000120987 -0.000678071
0.000929286 0.000831328 0.00178379
-1.29778e-07 7.60908e-08 1.38834e-07
-3.27765e-08 2.75287e-07 4.18663e-07
1.97628e-08 2.71039e-08 3.0523e-08
-8.81326e-08 1.68799e-08 2.66262e-08
1.99764e-07 1.18507e-07 1.62459e-07
-9.59819e-08 4.16786e-08 8.20706e-08
-1.65673e-07 1.84493e-07 2.96853e-07
-1.85531e-07 1.21837e-07 2.10246e-07
2.50008e-07 1.55497e-07 2.16303e-07
7.95956e-08 2.91544e-08 4.56397e-08
7.80207e-08 1.35495e-07 1.99698e-07
5.76768e-09 8.93766e-08 1.32026e-07
7.73126e-08 6.74379e-08 1.0105e-07
6.7287e-08 2.65376e-07 3.54949e-07
1.69132e-07 1.07599e-07 1.40924e-07
-1.02364e-07 1.52857e-08 5.42662e-08
-1.50781e-07 4.46675e-08 1.1155e-07
-4.7707e-08 1.83128e-08 4.39557e-08
-1.81101e-07 9.81772e-08 1.6713e-07
2.38118e-09 1.25326e-08 1.78394e-08
4.92229e-08 2.41837e-07 3.47555e-07
0.00181718 -0.000121898 0.000262374
-1.35978e-07 2.75394e-07 4.3279e-07
2.57198e-07 2.22848e-07 3.14211e-07
2.34027e-07 2.84392e-07 4.02447e-07
0.00140004 -0.000193 -0.000316127
-6.2594e-08 8.6216e-09 2.36342e-08
-1.57005e-08 9.88598e-08 1.56636e-07
-1.64344e-07 2.0593e-07 3.39776e-07
-1.39296e-07 1.45819e-07 2.38707e-07
-1.46579e-07 9.33302e-08 1.31387e-07
-1.31204e-07 1.66542e-07 2.09622e-07
-6.94059e-08 7.39766e-08 9.71775e-08
-1.69747e-07 1.09234e-07 1.69066e-07
-9.54759e-08 1.60595e-08 4.87816e-08
1.19694e-07 4.60258e-08 7.37414e-08
3.5781e-08 1.7274e-08 1.06848e-08
3.35466e-08 2.07925e-08 1.63545e-08
1.34517e-07 1.84246e-07 2.61379e-07
3.23538e-08 8.9659e-08 1.17133e-07
3.91272e-08 1.82565e-07 2.65969e-07
1.18354e-07 1.01439e-07 1.43945e-07
-2.76573e-08 1.65694e-07 2.46218e-07
0.00151955 -0.000307353 -8.8346e-05
-2.23207e-08 2.22783e-11 7.27966e-09
0.00134118 -0.000630351 2.02682e-05
3.734e-08 4.16975e-08 5.98678e-08
-1.1367e-08 5.86318e-08 8.42585e-08
1.6796e-07 1.59011e-07 2.15025e-07
1.41676e-07 1.10261e-07 1.55132e-07
1.18685e-07 9.51574e-08 1.00351e-07
5.13577e-08 7.3551e-08 8.70435e-08
-6.67898e-09 -2.65622e-11 1.87088e-09
1.9013e-07 1.40955e-07 1.97336e-07
-5.975e-08 1.81794e-07 2.79037e-07
-1.3113e-07 1.38785e-07 2.04334e-07
-1.05726e-07 6.96637e-08 1.32324e-07
7.9465e-08 2.38835e-08 1.36017e-08
-5.64583e-08 1.67053e-07 2.6265e-07
-9.5546e-10 3.5749e-08 3.97905e-08
1.30357e-07 7.60766e-08 1.12508e-07
2.06324e-07 2.28641e-07 3.19774e-07
-1.31134e-07 6.11153e-08 9.61408e-08
-1.63076e-08 2.31571e-07 3.46454e-07
-2.69135e-08 5.93073e-08 7.94016e-08
1.16717e-07 1.46438e-07 1.92098e-07
-4.85195e-08 1.8784e-08 2.18497e-08
0.00164894 0.000296102 0.000727259
-1.29628e-07 3.73461e-08 8.43446e-08
1.70617e-08 5.98335e-08 8.15624e-08
4.65853e-08 8.7648e-08 9.1683e-08
-7.17244e-08 4.21334e-08 5.03308e-08
5.97263e-08 4.37147e-08 3.57614e-08
-5.61973e-08 7.73728e-08 1.0043e-07
0.00201818 -0.00142209 8.09964e-05
0.00190754 0.00071686 -0.00115823
9.33603e-08 5.63829e-08 8.63456e-08
2.06789e-08 1.57224e-07 1.9169e-07
8.10266e-08 4.76137e-08 5.21024e-08
-1.40215e-08 1.81283e-07 2.67591e-07
-4.30548e-08 8.42152e-08 9.3721e-08
-1.45206e-07 7.27004e-08 1.48495e-07
1.05295e-07 2.1556e-07 3.05317e-07
0.000821233 0.000733901 9.13177e-06
1.06064e-07 1.58692e-07 2.30659e-07
3.96267e-08 1.01311e-08 1.27782e-08
0.000892147 -1.04084e-05 -0.000979977
-7.64298e-08 2.04751e-08 4.4266e-08
0.00205611 -0.00115644 0.000145719
7.04627e-08 2.05021e-07 2.91627e-07
7.79964e-08 1.21395e-07 1.75861e-07
0.000787699 -0.00106786 0.000117252
1.46473e-07 6.36907e-08 8.93326e-08
0.000743187 0.00119305 -6.79922e-05
4.64172e-08 5.74118e-08 8.35632e-08
-4.8532e-08 5.70433e-08 9.17338e-08
7.09928e-08 4.82309e-08 7.55041e-08
4.51168e-08 2.00925e-07 2.97059e-07
6.34843e-08 2.27431e-08 3.00066e-08
0.000667003 -0.00017218 0.000797706
2.71614e-08 8.52968e-08 9.34863e-08
-1.16712e-08 1.95201e-08 3.20191e-08
1.34661e-08 5.62311e-08 8.53798e-08
0.000424229 -0.000432392 0.00102933
1.31299e-08 1.31446e-07 1.95429e-07
4.017e-08 1.70891e-07 2.48594e-07
3.0718e-08 5.85458e-08 8.69859e-08
5.17751e-08 6.4512e-08 9.17773e-08
2.47908e-08 3.5368e-09 3.11202e-09
0.000995048 0.000529384 4.86961e-05
0.000672785 -0.000990984 0.000177778
0.000720333 -0.000983348 9.94947e-05
6.5303e-08 1.35667e-07 1.97673e-07
-1.2827e-08 5.1973e-08 7.8601e-08
-3.80193e-08 3.81751e-08 4.33732e-08
-6.57412e-08 6.29701e-08 1.0358e-07
0.000762553 0.000485369 0.000136322
0.000413365 0.000363454 -0.000522499
7.48192e-10 1.6216e-09 4.5744e-09
-8.05605e-09 3.22296e-09 2.92862e-09
-1.86725e-07 1.20827e-07 2.05419e-07
-3.20496e-08 1.46569e-09 6.72295e-09
0.000630281 -0.000209039 -0.000297962
-1.63637e-07 1.50764e-07 2.47607e-07
1.35695e-08 3.18341e-08 4.79422e-08
2.04488e-07 1.97724e-07 2.80446e-07
-2.12151e-08 1.90109e-09 4.07304e-09
-1.96677e-07 1.18869e-07 2.06666e-07
-5.06402e-08 5.87065e-08 9.59779e-08
0.000380252 -0.000423648 0.000772252
6.69117e-08 3.02892e-08 4.25952e-08
1.43699e-07 1.04404e-07 1.44021e-07
1.8311e-08 3.47509e-09 1.19693e-09
0.000503913 -0.000476638 0.000583947
5.16898e-09 4.75674e-09 2.34114e-09