# vtk DataFile Version 4.2
vtk output
ASCII
DATASET UNSTRUCTURED_GRID

POINTS 343 double
0.00160771 0.00421602 -2.04636e-05
0.00310951 0.00502354 0.00213559
0 0.00419538 0.00112517
0.00276778 0.00199068 0.00190689
0.00742599 0.00250854 0.00494007
0.00742333 0.00393007 0.00630512
0.0109422 0.00492521 0.00486401
0.00893585 0.00497201 0.00358126
0.00981717 0.00342325 0.0067923
0.00716077 0.00508881 0.00491061
0.00600267 0.00119995 0.00992275
0.00758442 0.00218396 0.007809
0.00602209 7.5254e-05 0.0082421
0.00288335 0.00203969 0.00799704
0.00615034 0.00261544 0.00992053
0.00997669 0.00658169 0.00682283
0.00920072 0.00630701 0.00506915
0.00324138 0.00222709 0.00510519
0 0.00143586 0.00417514
0.00228426 0.00349584 0.00400797
0.00982267 0.00332926 0.00304096
0.01113 0.00236877 0.00492673
0 0.00270918 0.00154168
0.00597924 0.00151139 -7.21157e-05
0.0071976 0.00228696 0.00210892
0.00568934 0.00360377 0.00153284
0.00193026 2.40509e-05 0.00403578
0.00601835 7.57072e-05 0.00161361
0.00376312 0.00700167 -4.60806e-05
0.00277154 0.00808908 0.00190917
0.00586244 0.00632643 0.0015724
0.0114726 0.00813997 0.00785356
0.0114309 0.00497257 0.00787917
0.0120315 0.00624445 0.00579833
0.0143237 0.0090148 0.00401832
0.0108651 0.00778254 0.00482937
0.0122769 0.0101471 0.00401606
0.0114416 0.00812649 0.00187639
0.00507252 0.00310375 0.00689631
0.00636575 0.00374668 0.00824331
0.00559054 0.00167665 0.00589943
0.00717057 0.00776324 0.00758653
0.00284446 0.00804495 0.00795378
0.00404245 0.0100496 0.00707591
0.00560782 0.00847323 0.00588709
0 0.00695361 0.00262895
0.00235617 0.00627011 0.00405783
0 0.0040177 0.00850214
0.00331394 0.00502867 0.00761982
0.00205065 0.00420054 0.00997415
0.0102847 0.00725577 0.00986793
0.00877265 0.00608841 0.00830685
0.00293479 0.00797985 0.00470434
0.00435853 0.00700058 0.00641311
0.00227085 0.00610799 0.00589711
0.0143178 0.00597943 0.00813161
0 0.00718191 0.00711644
0.00226808 0.00580362 -2.87025e-05
0 0.00577432 0.00158701
0.0143196 0.00735105 0.00693391
0.00410907 0.00340277 0.00994663
0.0143143 0.00161499 0.00400105
0.0115536 0.0021053 0.00183922
0.012047 0.00366929 0.00385065
0.00535264 0.00172101 0.00406112
0.00215545 0.0100275 0.00578737
0.00403704 5.10537e-05 0.00707759
0.00876768 0.00428997 0.00826531
0.0143196 0.00744551 0.0040212
0.0122649 0.000149258 0.00401765
0.00479938 0.00293486 -5.8154e-05
0.00387258 0.00159004 0.00994988
0.00405222 5.13556e-05 0.00278113
0.00688018 0.00528583 0.00746756
0.0045316 0.00320662 0.00310984
0 0.00849157 0.00581511
0.00698495 0.00376424 0.003699
0.00220349 0.00273753 -2.78048e-05
0.00830657 0.00842568 0.0098928
0.00856819 0.0101031 0.00839719
0.00602949 0.0100733 0.008241
0.00575036 0.00857365 0.00992513
0.0143214 0.00865686 0.00563483
0.0045092 0.00689362 0.00309298
0 0.00748929 0.00137438
0.00196363 0.00751471 -2.49734e-05
0 0.00287343 0.00335182
0 0.00580816 0.00831736
0 0.00429792 0.00253898
0.00363371 0.00434455 -4.44732e-05
0.00205027 0.00584535 0.00997407
0.00741929 0.00656776 0.00630716
0.00516113 0.00657699 0.00816828
0.00995492 0.00274986 0.00987222
0.0114941 0.00209967 0.00789061
0.00998701 0.000123149 0.00295943
0.00862584 0.00177206 0.00350632
0.0143154 0.0030496 0.00317861
0 0.00140616 0.00256446
0.00913393 0.0083387 0.00630657
0.00833836 0.00154015 -0.000100015
0.00865208 0.00365995 0.00149762
0.00451607 0.0100553 0.00576726
0.0122679 0.0101472 0.00567922
0.00366973 0.00145298 -4.48001e-05
0.0085625 0.000106506 0.0013896
0.00900337 0.00839751 0.00350507
0.0122566 0.000149239 0.00568078
0.00889059 0.00178358 0.0062546
0.00200761 0.00258936 0.00997459
0.0102051 0.00730622 -0.000123376
0.00740593 0.00778157 0.00207654
0.00851975 0.00619903 0.00149739
0 0.00686719 0.00578184
0.014317 0.00158586 0.0023938
0.00253813 0.00364265 0.00637576
0.0143248 0.00865187 0.00245087
0.012055 0.00633511 0.0039845
0.00857312 0.0101038 0.00138759
0.00998285 0.000122856 0.00680261
0.0143134 0.00161428 0.00564052
0.0120302 0.00372035 0.00591075
0.0021541 2.68215e-05 0.00578819
0 0.0013659 0.00748679
0.00195502 2.43888e-05 0.00750467
0.0143185 0.00703771 0.00560089
0.0083395 0.00859381 -0.000101745
0 0.0075208 0.00859127
0.00195087 0.0075112 0.00997537
0.00606135 0.00828055 0.00355119
0.0123158 0.0101462 0.00735618
0.0143235 0.00879497 0.00734206
0.00826643 0.00168961 0.0098938
0.0103986 0.00431521 0.00986627
0 0.0057735 0.00666667
0.00195666 0.0100249 0.00750378
0 0.00863025 0.00752641
0.0123056 0.000151177 0.00235778
0.0143208 0.00712534 0.0024567
0.0121256 0.00648858 0.00201578
0.0121936 0.00597095 0.00984446
0.010727 0.0015066 0.00986289
0.0123043 0.000150912 0.00735807
0.0143148 0.00154465 0.00730407
0 0.00143551 0.00581971
0.00855752 0.000106062 0.00839813
0.00603162 7.55516e-05 0.00332474
0.0113736 0.00484728 0.00189656
0.0143174 0.00447218 0.00236809
0.00605489 0.0100736 0.00658954
0.00405653 0.0100495 0.00277961
0.00187552 2.35816e-05 0.00239455
0 0.00727418 0.00419576
0.0143168 0.00594516 0.00648448
0.00999805 0.0101203 0.00295733
0.010759 0.00876493 0.00986176
0 0.00574334 0.00336387
0 0.0043297 0.00416652
0.00984062 0.00590377 0.00987365
0.0143137 0.00319781 0.00673464
0.00604681 7.5694e-05 0.00659133
0.00354411 0.0100435 0.00856607
0.0107299 0.00149965 -0.000128045
0.00827004 0.00676772 0.00989336
0.0143221 0.00768892 0.00840405
0.012338 0.00770027 0.00984208
0.00991129 0.00314557 -0.000118476
0.00481751 0.00580494 -5.85559e-05
0.010796 0.00876101 -0.000129953
0.0107785 0.0101293 0.00125551
0.00828978 0.00696937 -0.000100643
0.00999796 0.00649365 0.00290994
0.0107676 0.000133651 0.00125683
0.00412522 0.00505015 0.00994657
0.00619852 0.00591004 0.00991971
0.00619679 0.00424313 0.00991984
0.0107749 0.0101277 0.00847929
0.00353924 4.44787e-05 0.00856728
0.014318 0.00591568 0.00319063
0 0.00302218 0.00691532
0.0143159 0.00419249 0.00831532
0.0121883 0.0041678 -0.000144826
0.0143191 0.00288575 0.00137515
0 0.00244495 0.00857025
0.00349729 0.00861342 0.00995466
0.0107632 0.000133061 0.0084806
0.0121598 0.00277237 0.00984472
0.0126807 0.00434821 0.00983754
0.00812698 0.0100981 0.00573092
0.00743129 0.00767501 0.00493906
0.00808831 0.0100976 0.00411318
0.00999384 0.0101201 0.00680112
0.00432392 0.00696953 0.00994393
0.00596896 0.00440567 -7.20098e-05
0.00405571 5.10106e-05 0.00435406
0.00451016 5.69368e-05 0.0057695
0.0143211 0.00437029 0.000959436
0.0052114 0.00840241 0.00152291
0.0143157 0.00450346 0.00399147
0.0095579 0.00589087 -0.000115499
0.0123172 0.0101472 0.00235622
0 0.00848692 0.00262374
0.00193117 0.0100248 0.00403491
0 0.00885053 0.00419359
0.00601105 0.00892463 -7.36291e-05
0.00602585 0.0100732 0.0016121
0.00716267 0.00488155 0.00229032
0.0103493 0.00464943 -0.000123951
0.0080779 0.000100285 0.00411571
0.00811706 0.000100837 0.0057329
0.00187604 0.0100239 0.00239354
0.0122844 0.00259732 -0.000146251
0.0143148 0.00469561 0.00703714
0.0101998 0.0101228 0.00487245
0.00822351 0.00346547 0.00989391
0.00351618 4.48248e-05 0.00131269
0.0143161 0.00262214 0.0083832
0.00342616 0.00483462 0.00495653
0.00836026 0.00443453 -0.000100397
0.0119262 0.00595279 -0.000141744
0.00785189 0.0100948 0.00712087
0.0143143 0.00450381 0.0056543
0.00774542 0.0100937 0.00267851
0.010189 0.000125227 0.00487411
0.00406011 0.0100497 0.0043519
0 0.00452174 0.00721958
0.00647366 0.00729958 0.00991608
0.00784206 9.75287e-05 0.00712209
0.00515911 0.00513928 0.00353105
0.00609139 0.0100738 0.0049305
0.00608309 7.62827e-05 0.00493316
0.00525489 0.00528285 0.00610859
0 0.005744 0.00499998
0 0.00433013 0.00583333
0.00716612 0.00583399 -8.66352e-05
0.00714263 0.00642831 0.0034642
0.00773528 9.62515e-05 0.00268056
0.0143167 0.00591498 0.00482229
0.00528437 0.00647473 0.00477708
0.0082259 0.00510088 0.00989386
0.0143218 0.00594584 0.00141967
0 0.00666667 0
0.0123207 0.00766873 -0.000146626
0.0047714 6.05343e-05 -5.74461e-05
0 0.01 0.00666667
0.007164 0.0100858 0.00990757
0 0.00288419 0.00499914
0.014325 0.00765902 0.001207
0.0143277 0.00683667 -0.000165411
0 0.005 0.01
0.00716219 0.00297451 -8.61025e-05
0 0.005 0
0.0143193 0.000181581 0.00316116
0.0143306 0.0101612 0.00648363
0.00601283 0.00734935 -7.32603e-05
0.0143141 0.00306043 0.00482223
0.00716164 9.01798e-05 -8.61526e-05
0 0 0.00666667
0.00543792 0.00368517 0.00515798
0.0071553 8.88943e-05 0.00990847
0.0143176 0.000181176 0.00648591
0 0 0.005
0.012594 0.0101494 0.00106915
0.0143299 0.00894493 0.00105327
0.0143177 0.00018109 0.00482304
0.0143258 0.00517371 -0.000164336
0.00174332 0.00124223 -2.198e-05
0 0.00122008 0.00122008
0 0.00333333 0.01
0 0.00666667 0.01
0.0125931 0.00892955 -0.000149877
0.0143319 0.0101608 0.0031587
0.00603948 0.0100732 0.00332246
0.0143255 0.0068362 0.00980911
0 0.00333333 0
0 0.00122008 0.00877992
0.00174143 2.16866e-05 0.00875842
0.00174143 0.00124181 0.00997796
0.0125895 0.0101477 0.00861853
0.0017427 0.00880175 0.00997785
0 0.00877992 0.00877992
0.0143265 0.00894353 0.00859259
0.00956379 0.0101149 -0.000116894
0.014321 0.00140081 0.00105353
0.00174323 0.0100219 0.00875785
0.0125882 0.00892734 0.00983803
0.0143234 0.00517242 0.00980966
0 0 0.00333333
0.00955227 0.000119248 -0.000114481
0.0125818 0.000156226 0.00106972
0.00173087 2.18644e-05 0.00119003
0 0.00877992 0.00122008
0.0017429 0.00880239 -2.22327e-05
0.00173115 0.0100219 0.00118904
0.0143176 0.0013996 0.00859331
0.0125793 0.001376 0.00983892
0.00954523 0.000118085 0.0098781
0.0125846 0.00137744 -0.000149271
0.0125778 0.000155326 0.00861999
0.014325 0.00351004 -0.000164039
0.00477246 0.0100574 0.00993802
0.00351944 0.0100432 0.00131149
0.00955661 0.0101136 0.00987733
0.0143213 0.00350802 0.00980941
0 0.01 0.005
0.00375635 0.00853423 -4.62729e-05
0.0143305 0.010161 0.0048223
0 0.01 0.00333333
0 0.00166667 0
0.0143225 0.000181468 0.00149882
0 0.00166667 0.01
0 0.00833333 0
0.0143324 0.0085006 -0.000166297
0.0143193 0.000180941 0.00814892
0.0143353 0.0101626 0.00149841
0.0143321 0.0101613 0.00814727
0.00238297 0.010029 0.00996945
0 0.01 0.00833333
0.0119569 0.0101419 -0.000143518
0.0119447 0.000149285 -0.000142401
0.011939 0.000147919 0.00984777
0.0119509 0.0101398 0.00984677
0 0 0.00833333
0.0143295 0.00849736 0.00981004
0.00238253 3.05668e-05 -2.94727e-05
0 0 0.00166667
0.00477663 0.0100584 -5.88665e-05
0.0143214 0.001846 0.00981062
0.0143255 0.00184775 -0.000164782
0.00237963 2.98556e-05 0.00997007
0.00238367 0.0100296 -3.01627e-05
0 0.01 0.00166667
0.0143355 0.0101629 0.00981136
0 0 0.01
0.0143397 0.0101636 -0.000167462
0.0143231 0.000179889 0.00981307
0 0.01 0.01
0.0143277 0.000181045 -0.000166145
0 0.01 0
0 0 0
0.0071704 0.0100867 -8.83002e-05
0.00476632 5.9723e-05 0.00993866
0 0.00833333 0.01

CELLS 343 686
1 0
1 1
1 2
1 3
1 4
1 5
1 6
1 7
1 8
1 9
1 10
1 11
1 12
1 13
1 14
1 15
1 16
1 17
1 18
1 19
1 20
1 21
1 22
1 23
1 24
1 25
1 26
1 27
1 28
1 29
1 30
1 31
1 32
1 33
1 34
1 35
1 36
1 37
1 38
1 39
1 40
1 41
1 42
1 43
1 44
1 45
1 46
1 47
1 48
1 49
1 50
1 51
1 52
1 53
1 54
1 55
1 56
1 57
1 58
1 59
1 60
1 61
1 62
1 63
1 64
1 65
1 66
1 67
1 68
1 69
1 70
1 71
1 72
1 73
1 74
1 75
1 76
1 77
1 78
1 79
1 80
1 81
1 82
1 83
1 84
1 85
1 86
1 87
1 88
1 89
1 90
1 91
1 92
1 93
1 94
1 95
1 96
1 97
1 98
1 99
1 100
1 101
1 102
1 103
1 104
1 105
1 106
1 107
1 108
1 109
1 110
1 111
1 112
1 113
1 114
1 115
1 116
1 117
1 118
1 119
1 120
1 121
1 122
1 123
1 124
1 125
1 126
1 127
1 128
1 129
1 130
1 131
1 132
1 133
1 134
1 135
1 136
1 137
1 138
1 139
1 140
1 141
1 142
1 143
1 144
1 145
1 146
1 147
1 148
1 149
1 150
1 151
1 152
1 153
1 154
1 155
1 156
1 157
1 158
1 159
1 160
1 161
1 162
1 163
1 164
1 165
1 166
1 167
1 168
1 169
1 170
1 171
1 172
1 173
1 174
1 175
1 176
1 177
1 178
1 179
1 180
1 181
1 182
1 183
1 184
1 185
1 186
1 187
1 188
1 189
1 190
1 191
1 192
1 193
1 194
1 195
1 196
1 197
1 198
1 199
1 200
1 201
1 202
1 203
1 204
1 205
1 206
1 207
1 208
1 209
1 210
1 211
1 212
1 213
1 214
1 215
1 216
1 217
1 218
1 219
1 220
1 221
1 222
1 223
1 224
1 225
1 226
1 227
1 228
1 229
1 230
1 231
1 232
1 233
1 234
1 235
1 236
1 237
1 238
1 239
1 240
1 241
1 242
1 243
1 244
1 245
1 246
1 247
1 248
1 249
1 250
1 251
1 252
1 253
1 254
1 255
1 256
1 257
1 258
1 259
1 260
1 261
1 262
1 263
1 264
1 265
1 266
1 267
1 268
1 269
1 270
1 271
1 272
1 273
1 274
1 275
1 276
1 277
1 278
1 279
1 280
1 281
1 282
1 283
1 284
1 285
1 286
1 287
1 288
1 289
1 290
1 291
1 292
1 293
1 294
1 295
1 296
1 297
1 298
1 299
1 300
1 301
1 302
1 303
1 304
1 305
1 306
1 307
1 308
1 309
1 310
1 311
1 312
1 313
1 314
1 315
1 316
1 317
1 318
1 319
1 320
1 321
1 322
1 323
1 324
1 325
1 326
1 327
1 328
1 329
1 330
1 331
1 332
1 333
1 334
1 335
1 336
1 337
1 338
1 339
1 340
1 341
1 342

CELL_TYPES 343
1
1
1
1
1
1
1
1
1
1
1
1
1
1
1
1
1
1
1
1
1
1
1
1
1
1
1
1
1
1
1
1
1
1
1
1
1
1
1
1
1
1
1
1
1
1
1
1
1
1
1
1
1
1
1
1
1
1
1
1
1
1
1
1
1
1
1
1
1
1
1
1
1
1
1
1
1
1
1
1
1
1
1
1
1
1
1
1
1
1
1
1
1
1
1
1
1
1
1
1
1
1
1
1
1
1
1
1
1
1
1
1
1
1
1
1
1
1
1
1
1
1
1
1
1
1
1
1
1
1
1
1
1
1
1
1
1
1
1
1
1
1
1
1
1
1
1
1
1
1
1
1
1
1
1
1
1
1
1
1
1
1
1
1
1
1
1
1
1
1
1
1
1
1
1
1
1
1
1
1
1
1
1
1
1
1
1
1
1
1
1
1
1
1
1
1
1
1
1
1
1
1
1
1
1
1
1
1
1
1
1
1
1
1
1
1
1
1
1
1
1
1
1
1
1
1
1
1
1
1
1
1
1
1
1
1
1
1
1
1
1
1
1
1
1
1
1
1
1
1
1
1
1
1
1
1
1
1
1
1
1
1
1
1
1
1
1
1
1
1
1
1
1
1
1
1
1
1
1
1
1
1
1
1
1
1
1
1
1
1
1
1
1
1
1
1
1
1
1
1
1
1
1
1
1
1
1
1
1
1
1
1
1
1
1
1
1
1
1
1
1
1
1
1
1
1
1
1
1
1
1
1
1
1
1
1
1
1
1
1
1
1
1

POINT_DATA 343
FIELD FieldData 8

NodeID_(#) 1 343 int
0
1
2
3
4
5
6
7
8
9
10
11
12
13
14
15
16
17
18
19
20
21
22
23
24
25
26
27
28
29
30
31
32
33
34
35
36
37
38
39
40
41
42
43
44
45
46
47
48
49
50
51
52
53
54
55
56
57
58
59
60
61
62
63
64
65
66
67
68
69
70
71
72
73
74
75
76
77
78
79
80
81
82
83
84
85
86
87
88
89
90
91
92
93
94
95
96
97
98
99
100
101
102
103
104
105
106
107
108
109
110
111
112
113
114
115
116
117
118
119
120
121
122
123
124
125
126
127
128
129
130
131
132
133
134
135
136
137
138
139
140
141
142
143
144
145
146
147
148
149
150
151
152
153
154
155
156
157
158
159
160
161
162
163
164
165
166
167
168
169
170
171
172
173
174
175
176
177
178
179
180
181
182
183
184
185
186
187
188
189
190
191
192
193
194
195
196
197
198
199
200
201
202
203
204
205
206
207
208
209
210
211
212
213
214
215
216
217
218
219
220
221
222
223
224
225
226
227
228
229
230
231
232
233
234
235
236
237
238
239
240
241
242
243
244
245
246
247
248
249
250
251
252
253
254
255
256
257
258
259
260
261
262
263
264
265
266
267
268
269
270
271
272
273
274
275
276
277
278
279
280
281
282
283
284
285
286
287
288
289
290
291
292
293
294
295
296
297
298
299
300
301
302
303
304
305
306
307
308
309
310
311
312
313
314
315
316
317
318
319
320
321
322
323
324
325
326
327
328
329
330
331
332
333
334
335
336
337
338
339
340
341
342

Component_(#) 1 343 int
0
0
0
0
0
0
0
0
0
0
0
0
0
0
0
0
0
0
0
0
0
0
0
0
0
0
0
0
0
0
0
0
0
0
0
0
0
0
0
0
0
0
0
0
0
0
0
0
0
0
0
0
0
0
0
0
0
0
0
0
0
0
0
0
0
0
0
0
0
0
0
0
0
0
0
0
0
0
0
0
0
0
0
0
0
0
0
0
0
0
0
0
0
0
0
0
0
0
0
0
0
0
0
0
0
0
0
0
0
0
0
0
0
0
0
0
0
0
0
0
0
0
0
0
0
0
0
0
0
0
0
0
0
0
0
0
0
0
0
0
0
0
0
0
0
0
0
0
0
0
0
0
0
0
0
0
0
0
0
0
0
0
0
0
0
0
0
0
0
0
0
0
0
0
0
0
0
0
0
0
0
0
0
0
0
0
0
0
0
0
0
0
0
0
0
0
0
0
0
0
0
0
0
0
0
0
0
0
0
0
0
0
0
0
0
0
0
0
0
0
0
0
0
0
0
0
0
0
0
0
0
0
0
0
0
0
0
0
0
0
0
0
0
0
0
0
0
0
0
0
0
0
0
0
0
0
0
0
0
0
0
0
0
0
0
0
0
0
0
0
0
0
0
0
0
0
0
0
0
0
0
0
0
0
0
0
0
0
0
0
0
0
0
0
0
0
0
0
0
0
0
0
0
0
0
0
0
0
0
0
0
0
0
0
0
0
0
0
0
0
0
0
0
0
0
0
0
0
0
0
0
0
0
0
0
0
0
0
0
0
0
0
0

NodalMass_(kg) 1 343 double
3.15563e-06
1.41304e-05
2.20912e-06
1.71484e-05
8.42e-06
9.09306e-06
1.01179e-05
7.52198e-06
6.81096e-06
5.58223e-06
3.10888e-06
1.07575e-05
4.87011e-06
1.64955e-05
3.0246e-06
8.05984e-06
6.703e-06
1.0877e-05
4.18978e-06
8.16106e-06
6.14143e-06
1.17902e-05
2.23114e-06
4.25176e-06
1.09915e-05
7.41467e-06
4.21871e-06
3.92484e-06
3.08766e-06
1.31268e-05
7.72627e-06
1.65404e-05
1.19037e-05
7.97564e-06
3.81683e-06
1.11001e-05
3.81317e-06
1.39137e-05
6.37414e-06
8.00975e-06
7.6712e-06
1.21135e-05
1.6399e-05
2.78633e-06
8.93599e-06
2.58087e-06
7.57362e-06
4.23241e-06
1.31286e-05
3.80168e-06
2.7746e-06
7.16776e-06
1.21307e-05
5.11765e-06
8.19728e-06
4.58094e-06
2.79503e-06
3.26126e-06
4.12443e-06
2.11915e-06
3.35177e-06
3.61669e-06
1.56838e-05
7.33679e-06
8.24695e-06
5.00369e-06
2.82625e-06
7.20276e-06
3.26815e-06
4.18751e-06
2.02785e-06
2.42152e-06
3.11835e-06
5.97459e-06
5.87101e-06
4.09374e-06
5.45463e-06
2.28825e-06
4.49759e-06
4.38192e-06
4.50892e-06
4.39234e-06
4.27273e-06
5.32031e-06
1.53201e-06
2.38869e-06
2.02885e-06
4.38798e-06
3.17972e-06
3.14298e-06
4.61567e-06
5.87645e-06
8.18088e-06
2.48341e-06
1.53815e-05
3.49683e-06
7.35227e-06
2.01314e-06
2.0408e-06
7.98183e-06
4.41293e-06
7.1389e-06
1.20123e-06
5.03343e-06
1.61257e-06
4.12601e-06
8.73748e-06
4.37849e-06
7.97173e-06
2.13557e-06
3.38137e-06
9.48623e-06
7.40262e-06
1.80226e-06
2.10222e-06
7.98889e-06
1.87983e-06
7.44814e-06
4.19782e-06
2.37156e-06
4.31705e-06
6.06441e-06
4.30905e-06
2.16843e-06
1.8986e-06
1.81294e-06
3.89762e-06
2.44299e-06
1.65628e-06
8.01374e-06
1.64513e-06
2.3931e-06
3.01363e-06
2.99431e-06
1.36541e-06
1.87293e-06
2.09622e-06
1.94762e-06
1.87618e-06
6.37913e-06
4.58628e-06
2.02767e-06
1.61999e-06
2.41284e-06
3.8865e-06
4.44973e-06
2.29839e-06
1.17349e-05
3.11811e-06
1.354e-06
3.45063e-06
1.81846e-06
2.9382e-06
1.37381e-06
2.41464e-06
2.10451e-06
2.63927e-06
2.14166e-06
1.7943e-06
3.19976e-06
1.36989e-06
2.43489e-06
2.08158e-06
1.3601e-06
2.17203e-06
1.89924e-06
3.16996e-06
2.6119e-06
2.37677e-06
1.60225e-06
1.90684e-06
5.49206e-06
1.87878e-06
3.14313e-06
2.97301e-06
1.18454e-06
1.89263e-06
2.04166e-06
2.73572e-06
2.42405e-06
3.23083e-06
3.19752e-06
3.2142e-06
1.94492e-06
1.61196e-06
1.86876e-06
3.22435e-06
2.1114e-06
2.96917e-06
6.15288e-06
2.3097e-06
2.39729e-06
2.38029e-06
2.64508e-06
1.66557e-06
1.82377e-06
2.06583e-06
5.73271e-06
2.08467e-06
2.18324e-06
2.43522e-06
3.1188e-06
3.17316e-06
2.05447e-06
1.9592e-06
3.05718e-06
6.44327e-06
2.08796e-06
2.72615e-06
2.15709e-06
1.86812e-06
2.0028e-06
2.10999e-06
2.88994e-06
2.3222e-06
2.3979e-06
1.97629e-06
6.4127e-06
2.16225e-06
3.29198e-06
2.10223e-06
2.66566e-06
1.94415e-06
2.91865e-06
2.58116e-06
2.11703e-06
2.09534e-06
1.91719e-06
7.06046e-06
2.25203e-06
2.06378e-06
6.28159e-06
2.12147e-06
2.90924e-06
2.12921e-06
6.4487e-06
1.41701e-06
2.0682e-06
6.58062e-06
2.52584e-06
2.39732e-06
7.42191e-07
2.22368e-06
7.06751e-07
7.00657e-07
8.93749e-07
2.53536e-06
2.26535e-06
1.33607e-06
7.84725e-07
2.32303e-06
6.06694e-07
6.68276e-07
6.84307e-07
2.51242e-06
2.31629e-06
7.8367e-07
6.80839e-07
6.22692e-06
6.7471e-07
6.65305e-07
7.01158e-07
1.8232e-06
1.90695e-06
6.86722e-07
7.04792e-07
1.86445e-06
2.28572e-06
6.8045e-07
7.16005e-07
1.82373e-06
6.01079e-07
2.02791e-06
7.4579e-07
5.74423e-07
1.80052e-06
1.454e-06
2.2702e-06
1.80636e-06
2.15356e-06
1.79089e-06
1.79456e-06
6.8231e-07
2.24737e-06
1.45239e-06
1.79556e-06
6.97875e-07
6.24265e-07
6.62717e-07
1.44627e-06
1.40138e-06
2.15258e-06
1.82851e-06
1.3994e-06
1.43932e-06
2.19226e-06
6.97732e-07
1.77726e-06
1.79162e-06
6.54258e-07
7.3397e-07
2.34895e-06
7.10392e-07
6.56982e-07
6.26314e-07
2.18926e-06
6.12493e-07
6.03901e-07
5.92831e-07
5.12031e-07
5.11667e-07
4.9467e-07
4.97016e-07
4.96269e-07
5.33079e-07
4.94191e-07
4.97855e-07
4.86862e-07
4.90626e-07
4.94649e-07
4.94954e-07
4.91922e-07
4.89615e-07
4.96354e-07
4.95189e-07
4.82188e-07
1.10854e-06
5.3299e-07
5.44763e-07
5.36655e-07
5.15417e-07
5.01772e-07
5.53774e-07
5.53774e-07
5.53774e-07
5.53774e-07
5.53774e-07
5.53774e-07
5.50785e-07
5.50785e-07
7.45291e-07
7.11668e-07
4.9897e-07

NodalForce_(N) 3 343 double
-9.09821e-07 1.92043e-08 4.1951e-08
-8.5762e-06 3.31544e-07 6.34041e-07
0.000328963 7.21947e-05 0.000606783
-7.32182e-06 5.01639e-07 4.87978e-07
-1.03479e-05 3.72686e-06 1.72258e-06
-1.35123e-05 3.18539e-06 2.29459e-06
-2.42577e-05 8.77811e-06 4.28098e-06
-1.40606e-05 4.17432e-06 2.03853e-06
-1.34098e-05 4.97045e-06 2.725e-06
-8.52505e-06 1.68536e-06 1.17472e-06
-3.32207e-06 1.14607e-06 6.86963e-07
-1.45409e-05 5.18442e-06 3.18776e-06
-4.16511e-06 1.95279e-06 1.12549e-06
-8.89413e-06 2.1261e-07 6.38257e-07
-3.78715e-06 8.57608e-07 6.70516e-07
-2.05909e-05 5.28035e-06 3.49452e-06
-1.48729e-05 3.72897e-06 2.27805e-06
-6.07319e-06 4.00745e-07 6.69504e-07
0.000782403 0.00068613 0.000278328
-3.4269e-06 4.75167e-09 3.26034e-07
-1.09131e-05 4.73439e-06 1.75307e-06
-2.34365e-05 1.19984e-05 4.90255e-06
0.00178193 -0.000477041 0.000323873
-3.25452e-06 1.67221e-06 3.59344e-07
-1.17248e-05 5.14724e-06 1.44468e-06
-7.33347e-06 1.54314e-06 7.04257e-07
-1.03179e-06 5.65549e-08 1.08963e-07
-2.47517e-06 1.69902e-06 3.16254e-07
-2.4666e-06 1.84776e-07 1.47597e-07
-8.3935e-06 1.68172e-07 5.11585e-07
-9.82551e-06 1.28927e-06 8.65598e-07
-5.45245e-05 1.51761e-05 9.26968e-06
-3.20258e-05 1.10497e-05 6.52839e-06
-2.38082e-05 8.21631e-06 4.23144e-06
-1.55862e-05 5.71982e-06 2.45858e-06
-3.23455e-05 9.25862e-06 4.94581e-06
-1.41581e-05 4.55231e-06 2.03244e-06
-4.17523e-05 1.34825e-05 5.41532e-06
-6.14876e-06 9.17729e-07 8.71222e-07
-1.06947e-05 1.83431e-06 1.77413e-06
-6.52843e-06 2.12513e-06 1.04536e-06
-2.40289e-05 3.79844e-06 3.35712e-06
-1.20506e-05 6.27356e-08 1.03379e-06
-3.45641e-06 3.17628e-07 3.18867e-07
-1.36953e-05 1.74637e-06 1.52808e-06
0.00110594 4.80247e-06 -0.000373032
-3.86556e-06 6.62474e-08 2.77801e-07
0.000462799 0.000680344 -0.000491843
-9.90548e-06 2.62899e-07 9.07962e-07
-1.79808e-06 1.31915e-08 1.11672e-07
-8.10173e-06 1.99015e-06 1.39087e-06
-1.60217e-05 3.42968e-06 2.7471e-06
-8.48961e-06 8.37003e-08 7.14589e-07
-5.3891e-06 2.62904e-07 5.88052e-07
-4.20532e-06 2.37033e-08 3.37811e-07
-1.69211e-05 6.58926e-06 3.41843e-06
0.000934001 -0.000197907 7.61039e-05
-1.47025e-06 4.68329e-08 8.6068e-08
0.0019665 -0.000583506 0.00069516
-8.26638e-06 3.06751e-06 1.5272e-06
-3.15272e-06 2.56314e-07 3.51234e-07
-9.54524e-06 5.90737e-06 2.0581e-06
-2.96584e-05 1.77173e-05 5.07786e-06
-1.76392e-05 8.21685e-06 3.23528e-06
-6.26659e-06 2.17531e-06 8.64631e-07
-2.99041e-06 -4.70125e-08 2.21485e-07
-1.36991e-06 5.10531e-07 2.38351e-07
-1.40178e-05 3.6801e-06 2.71161e-06
-1.23258e-05 4.83308e-06 2.05469e-06
-7.58384e-06 5.56435e-06 1.81314e-06
-1.54208e-06 3.30261e-07 1.26088e-07
-1.81717e-06 2.99205e-07 2.47545e-07
-1.25314e-06 6.47583e-07 1.9805e-07
-9.43864e-06 1.50134e-06 1.49672e-06
-4.60965e-06 6.02555e-07 5.21322e-07
0.00154576 -0.000263709 -0.000490544
-6.9543e-06 1.79829e-06 9.46197e-07
-8.18957e-07 -2.64888e-09 6.23654e-08
-1.13632e-05 2.14055e-06 1.69134e-06
-1.21772e-05 2.51378e-06 1.67427e-06
-8.61485e-06 1.29594e-06 1.00908e-06
-7.64204e-06 9.96398e-07 9.55198e-07
-1.74779e-05 6.27637e-06 2.97237e-06
-5.38133e-06 4.05731e-07 4.97545e-07
0.00122923 0.000255476 0.000226137
-1.02822e-06 -1.89457e-08 5.39408e-08
0.00125757 -0.000181984 -0.000235499
0.00176115 -0.000208093 -0.00047275
0.00109281 0.000806214 -0.00057152
-2.0843e-06 2.04654e-07 1.31161e-07
-2.35423e-06 -2.33067e-08 1.37543e-07
-1.08274e-05 1.87201e-06 1.55101e-06
-1.06894e-05 6.57656e-07 1.40541e-06
-5.10985e-06 1.95729e-06 1.14626e-06
-3.34995e-05 1.65299e-05 8.44407e-06
-4.4863e-06 3.39586e-06 9.07648e-07
-9.56145e-06 4.92786e-06 1.5977e-06
-5.78719e-06 3.15263e-06 1.09365e-06
0.00186719 0.000840608 -7.37254e-05
-2.04991e-05 4.6644e-06 3.05199e-06
-4.82087e-06 3.04633e-06 6.28964e-07
-1.08292e-05 4.23765e-06 1.36763e-06
-1.60961e-06 1.84303e-07 1.46696e-07
-1.90726e-05 5.93099e-06 2.91818e-06
-7.57296e-07 2.40538e-07 6.54598e-08
-3.99045e-06 3.14082e-06 6.42813e-07
-2.11562e-05 5.15359e-06 2.63442e-06
-8.29635e-06 5.75265e-06 2.22614e-06
-1.18002e-05 5.4622e-06 2.64518e-06
-8.84094e-07 -1.75779e-08 5.77445e-08
-8.31063e-06 2.63283e-06 9.17094e-07
-1.75178e-05 3.59862e-06 1.78437e-06
-1.40117e-05 3.54934e-06 1.55931e-06
0.000666948 0.000366697 -0.000471315
-5.37867e-06 3.47462e-06 1.05766e-06
-4.06351e-06 4.25984e-08 3.22655e-07
-7.41243e-06 2.83023e-06 1.0919e-06
-2.17195e-05 7.83696e-06 3.54407e-06
-1.04668e-05 2.6493e-06 1.06688e-06
-3.46674e-06 2.24495e-06 9.88726e-07
-1.17474e-05 6.9967e-06 2.79032e-06
-1.52288e-05 6.63936e-06 3.14268e-06
-1.33769e-06 8.17387e-08 1.38749e-07
0.00156265 0.000238627 0.000376136
-5.75755e-07 2.66878e-08 5.11428e-08
-6.83064e-06 2.64467e-06 1.23428e-06
-8.39277e-06 2.12614e-06 7.72131e-07
0.00176761 0.000347253 -0.000864788
-8.46259e-07 -2.92814e-08 6.10678e-08
-1.25663e-05 1.96344e-06 1.28561e-06
-6.40247e-06 1.95231e-06 1.01215e-06
-1.00771e-05 3.48917e-06 1.78959e-06
-4.62135e-06 1.87243e-06 1.07919e-06
-7.26277e-06 2.295e-06 1.47587e-06
0.00131449 -0.000237373 0.000336954
-1.03695e-06 2.49197e-10 4.94379e-08
0.00155601 -0.000343154 0.000367437
-3.39197e-06 2.6586e-06 7.04551e-07
-6.82194e-06 2.80673e-06 1.06334e-06
-1.83394e-05 6.97207e-06 2.64161e-06
-1.46396e-05 4.77976e-06 2.85312e-06
-4.11648e-06 2.04542e-06 1.06846e-06
-3.22676e-06 2.16238e-06 9.64232e-07
-6.73769e-06 3.90052e-06 1.71464e-06
0.00101643 0.000571895 -0.000696671
-5.65299e-06 3.20877e-06 1.6966e-06
-1.47489e-06 9.95144e-07 2.49015e-07
-2.76739e-05 1.15997e-05 4.09761e-06
-9.70316e-06 4.74663e-06 1.65396e-06
-2.55018e-06 4.16803e-07 2.92451e-07
-4.01615e-06 3.93143e-07 3.34348e-07
-4.13553e-07 3.90768e-08 1.69764e-08
0.0023666 0.000634466 -5.22244e-05
-4.94116e-06 1.98718e-06 9.65585e-07
-7.20454e-06 2.01457e-06 8.64068e-07
-6.94223e-06 1.77241e-06 1.11478e-06
0.00158346 7.78995e-05 -0.000652867
0.000974025 0.000766866 0.00164277
-4.60783e-06 1.1365e-06 8.22289e-07
-9.8511e-06 4.87962e-06 2.23762e-06
-1.04455e-06 5.69594e-07 2.43055e-07
-2.7476e-06 2.34001e-07 2.35291e-07
-3.23878e-06 2.20847e-06 4.94062e-07
-3.08542e-06 5.77965e-07 5.04487e-07
-8.7888e-06 3.11827e-06 1.65608e-06
-6.77089e-06 2.02219e-06 1.2106e-06
-5.21846e-06 2.62181e-06 6.7018e-07
-2.53803e-06 2.56067e-07 1.7077e-07
-6.79898e-06 2.1662e-06 7.51715e-07
-5.03831e-06 1.57722e-06 5.83372e-07
-3.63322e-06 9.23734e-07 3.59336e-07
-1.30305e-05 3.85681e-06 1.75268e-06
-2.57388e-06 2.12261e-06 4.68222e-07
-3.24073e-06 1.11892e-07 3.6935e-07
-4.71882e-06 4.87934e-07 7.08908e-07
-1.69026e-06 2.24465e-07 2.74819e-07
-6.57953e-06 1.76343e-06 9.94022e-07
-9.92591e-07 2.98594e-07 1.73431e-07
-9.36892e-06 4.0519e-06 1.57836e-06
0.00190271 -0.000136184 0.000180835
-1.08239e-05 4.75977e-06 2.4012e-06
-7.54992e-06 3.77701e-06 1.01686e-06
-8.88643e-06 5.13741e-06 1.52649e-06
0.00152509 -0.000257291 -0.000286517
-1.67056e-06 1.03185e-07 1.75918e-07
-3.20745e-06 2.03163e-06 9.98893e-07
-8.31469e-06 3.70239e-06 2.00707e-06
-6.35837e-06 2.47369e-06 1.38578e-06
-7.39196e-06 1.61234e-06 9.54928e-07
-1.18663e-05 2.19572e-06 1.51468e-06
-5.57623e-06 1.27367e-06 6.48641e-07
-7.55708e-06 1.92755e-06 1.11306e-06
-2.78779e-06 8.60637e-08 3.36296e-07
-2.86889e-06 5.74042e-07 2.2874e-07
-7.43965e-07 3.49196e-07 1.04071e-07
-9.41121e-07 4.35648e-07 1.49427e-07
-6.26735e-06 3.19997e-06 9.72105e-07
-7.47784e-06 1.11311e-06 6.10877e-07
-6.65574e-06 3.13477e-06 1.24123e-06
-4.44781e-06 1.47428e-06 4.76143e-07
-8.89681e-06 2.98101e-06 1.18142e-06
0.00158652 -0.000328853 -6.84462e-05
-1.60769e-06 -2.10418e-08 1.29945e-07
0.00139167 -0.000566937 3.92171e-05
-3.04055e-06 5.94291e-07 2.34858e-07
-5.29221e-06 9.95843e-07 4.63431e-07
-9.109e-06 2.01816e-06 1.04065e-06
-4.18993e-06 1.75644e-06 5.02093e-07
-2.71582e-06 1.87946e-06 5.26533e-07
-2.31326e-06 1.4742e-06 5.80167e-07
-8.99894e-07 -7.25001e-09 5.98191e-08
-4.18437e-06 2.51955e-06 6.17335e-07
-7.13884e-06 3.09814e-06 1.50796e-06
-9.0555e-06 2.45816e-06 1.23829e-06
-4.14741e-06 1.10617e-06 8.13361e-07
-7.70697e-07 4.00644e-07 6.43797e-08
-6.02935e-06 3.07563e-06 1.45566e-06
-4.56634e-06 2.26194e-07 4.26634e-07
-3.31741e-06 1.13947e-06 3.46093e-07
-8.68595e-06 3.60973e-06 1.09379e-06
-5.19871e-06 1.03831e-06 6.68959e-07
-8.72684e-06 3.95916e-06 1.76062e-06
-4.41258e-06 1.00511e-06 4.7102e-07
-4.121e-06 2.87078e-06 1.00696e-06
-3.05568e-06 2.85526e-07 2.52215e-07
0.00163129 0.000268657 0.000698074
-3.8346e-06 4.68017e-07 5.38885e-07
-2.08572e-06 1.21411e-06 5.72187e-07
-7.41225e-06 8.50541e-07 8.06353e-07
-4.14884e-06 7.12142e-07 4.27703e-07
-1.42444e-06 8.88252e-07 2.6421e-07
-7.21207e-06 7.08205e-07 8.5825e-07
0.0022127 -0.00129803 4.7375e-05
0.00199351 0.000654308 -0.00102635
-3.15737e-06 6.69915e-07 2.77556e-07
-1.05805e-05 1.89957e-06 1.2032e-06
-1.25606e-06 9.25648e-07 2.19878e-07
-7.24688e-06 3.01488e-06 1.33149e-06
-7.95471e-06 7.60147e-07 8.64533e-07
-5.10797e-06 1.00115e-06 9.01009e-07
-8.04609e-06 3.61376e-06 1.21074e-06
0.000798098 0.000743658 -1.63197e-05
-6.83774e-06 2.55385e-06 8.36231e-07
-3.20464e-07 2.40475e-07 1.10059e-08
0.000899772 -8.97134e-06 -0.000979883
-2.11653e-06 3.9803e-07 2.4221e-07
0.00226693 -0.00104181 0.000100973
-8.36249e-06 3.4178e-06 1.16137e-06
-4.64049e-06 2.02918e-06 6.22159e-07
0.000762058 -0.00107505 0.000171505
-2.56737e-06 1.00458e-06 2.76652e-07
0.000707608 0.00112357 -0.000113979
-1.55551e-06 1.14194e-06 3.47192e-07
-3.04117e-06 1.07163e-06 5.06701e-07
-3.47321e-06 5.6586e-07 2.74112e-07
-6.83326e-06 3.56961e-06 1.42752e-06
-5.79525e-07 4.89505e-07 5.7554e-08
0.000554816 -0.000297727 0.000770329
-6.36862e-06 9.51659e-07 8.04336e-07
-7.52476e-07 3.93054e-07 2.17148e-07
-1.65744e-06 1.12213e-06 4.53066e-07
0.000333239 -0.000542279 0.000996444
-6.71927e-06 2.35446e-06 8.28761e-07
-7.52206e-06 2.94006e-06 1.00805e-06
-1.65158e-06 1.16281e-06 4.13347e-07
-2.22005e-06 1.09231e-06 3.09887e-07
-4.67426e-07 4.7281e-08 3.73955e-08
0.00118208 0.00066114 3.15074e-05
0.000638699 -0.000943638 0.000236382
0.000666478 -0.00101868 0.000176182
-6.20409e-06 2.26027e-06 7.47913e-07
-2.57421e-06 9.59726e-07 3.80823e-07
-3.60621e-06 6.46704e-07 3.45531e-07
-2.94504e-06 1.0646e-06 5.68079e-07
0.000728599 0.000519797 0.000104935
0.000562678 0.000481451 -0.0004915
-4.02655e-07 3.99759e-08 6.82068e-08
-7.61749e-07 2.26755e-08 4.75573e-08
-7.29795e-06 2.23776e-06 1.16284e-06
-1.02308e-06 -4.75725e-09 7.37842e-08
0.000769493 -0.000191443 -0.000320161
-7.73345e-06 2.63569e-06 1.36682e-06
-1.86556e-06 5.56391e-07 2.02418e-07
-5.52977e-06 3.78063e-06 9.98913e-07
-7.37767e-07 1.64047e-08 3.52616e-08
-6.95635e-06 2.08891e-06 1.16399e-06
-2.52601e-06 1.01445e-06 5.30267e-07
0.000278954 -0.000537011 0.000790887
-7.25332e-07 6.29719e-07 1.03468e-07