# vtk DataFile Version 4.2
vtk output
ASCII
DATASET UNSTRUCTURED_GRID

POINTS 343 double
0.00161171 0.00421626 -2.06253e-05
0.00311707 0.00502404 0.00213527
0 0.00419538 0.00112517
0.00277475 0.00199115 0.0019066
0.00744708 0.00251137 0.00493947
0.00744369 0.0039323 0.006304
0.0109752 0.00492929 0.00486338
0.00896152 0.00497487 0.00358132
0.00984626 0.00342716 0.00679058
0.00717995 0.00509067 0.00491007
0.00601995 0.00120224 0.00992127
0.00760608 0.00218693 0.00780746
0.00603973 7.78887e-05 0.00824096
0.00289046 0.00204017 0.00799673
0.00616754 0.00261743 0.009919
0.0100051 0.0065845 0.00682104
0.00922657 0.00630955 0.00506849
0.00324952 0.00222772 0.00510486
0 0.00143586 0.00417514
0.00228981 0.00349619 0.00400773
0.00985256 0.00333338 0.00304136
0.0111648 0.00237416 0.00492604
0 0.00270918 0.00154168
0.00599748 0.00151381 -7.16073e-05
0.0072188 0.00228978 0.0021092
0.00570518 0.00360528 0.00153304
0.00193526 2.44001e-05 0.00403555
0.00603674 7.85038e-05 0.00161372
0.00377313 0.00700236 -4.59719e-05
0.00277807 0.00808954 0.0019089
0.00587817 0.00632764 0.00157264
0.0115062 0.00814294 0.00785087
0.0114654 0.00497678 0.00787645
0.0120684 0.00624851 0.00579708
0.0143708 0.00901894 0.00401831
0.0108968 0.0077854 0.00482885
0.0123142 0.0101495 0.0040161
0.0114763 0.00812951 0.00187771
0.00508578 0.00310498 0.00689569
0.00638296 0.00374839 0.00824199
0.00560583 0.00167862 0.00589877
0.00718921 0.00776482 0.0075852
0.00285088 0.00804545 0.0079535
0.0040519 0.0100502 0.00707551
0.00562158 0.0084743 0.00588653
0 0.00695361 0.00262895
0.00236173 0.00627048 0.0040576
0 0.0040177 0.00850214
0.00332179 0.00502919 0.00761948
0.00205551 0.00420083 0.0099739
0.0103145 0.00725847 0.00986473
0.00879704 0.00609076 0.00830474
0.00294159 0.00798035 0.00470406
0.00436904 0.00700141 0.00641277
0.00227616 0.00610833 0.00589688
0.0143651 0.00598498 0.00812832
0 0.00718191 0.00711644
0.00227373 0.00580399 -2.88497e-05
0 0.00577432 0.00158701
0.0143666 0.00735581 0.00693142
0.00411982 0.00340364 0.00994566
0.0143643 0.00162333 0.00400098
0.0115911 0.00211129 0.0018405
0.0120853 0.00367464 0.00385072
0.00536733 0.00172289 0.00406063
0.00216019 0.0100277 0.00578715
0.00404836 5.24839e-05 0.00707714
0.00879266 0.00429283 0.00826327
0.014367 0.00744999 0.00402112
0.012306 0.000157036 0.00401753
0.00481317 0.00293613 -5.78569e-05
0.00388309 0.0015911 0.00994899
0.00406381 5.29412e-05 0.00278076
0.00689849 0.00528756 0.00746626
0.00454339 0.00320762 0.00310942
0 0.00849157 0.00581511
0.00700429 0.00376636 0.00369874
0.00220913 0.00273781 -2.79455e-05
0.00832927 0.00842756 0.00989022
0.00859133 0.0101046 0.00839502
0.00604465 0.0100744 0.00823979
0.0057651 0.00857487 0.0099236
0.0143682 0.0086611 0.00563343
0.00452037 0.00689449 0.00309259
0 0.00748929 0.00137438
0.00196838 0.007515 -2.51426e-05
0 0.00287343 0.00335182
0 0.00580816 0.00831736
0 0.00429792 0.00253898
0.00364354 0.00434523 -4.43767e-05
0.00205502 0.00584567 0.00997381
0.00743889 0.00656953 0.00630615
0.0051741 0.00657797 0.00816732
0.00998522 0.00275424 0.0098693
0.0115302 0.00210545 0.00788793
0.0100193 0.000128879 0.00295985
0.00865191 0.00177601 0.00350634
0.014365 0.00305706 0.00317922
0 0.00140616 0.00256446
0.00915899 0.00834088 0.00630525
0.00836497 0.00154415 -9.88607e-05
0.00867814 0.00366322 0.00149847
0.00452683 0.0100559 0.00576677
0.0123047 0.0101496 0.00567804
0.00368037 0.00145412 -4.46941e-05
0.00859004 0.000111223 0.00139034
0.00902853 0.00839963 0.00350515
0.0122973 0.000156946 0.00567937
0.00891704 0.0017876 0.00625327
0.00201249 0.00258961 0.00997433
0.0102362 0.00730898 -0.000121562
0.00742608 0.00778326 0.00207698
0.00854431 0.00620129 0.00149828
0 0.00686719 0.00578184
0.0143676 0.00159431 0.0023949
0.00254423 0.00364303 0.00637549
0.0143725 0.00865613 0.00245204
0.0120922 0.00633925 0.00398448
0.00859736 0.0101054 0.0013886
0.0100144 0.000128583 0.00680074
0.0143631 0.0016225 0.0056389
0.0120682 0.0037257 0.00590926
0.00215968 2.72154e-05 0.00578796
0 0.0013659 0.00748679
0.00196002 2.47588e-05 0.00750451
0.0143657 0.00704249 0.00559961
0.00836367 0.00859569 -0.000100303
0 0.0075208 0.00859127
0.00195531 0.00751152 0.00997511
0.00607668 0.00828177 0.00355092
0.0123527 0.0101487 0.00735366
0.0143701 0.0087991 0.00733927
0.00829107 0.00169323 0.0098914
0.0104298 0.00431911 0.00986315
0 0.0057735 0.00666667
0.00196094 0.0100251 0.00750359
0 0.00863025 0.00752641
0.0123474 0.000159072 0.00235872
0.0143688 0.00712999 0.00245783
0.0121637 0.0064926 0.00201712
0.0122309 0.00597519 0.0098406
0.0107608 0.00151198 0.00985966
0.0123451 0.000158637 0.00735556
0.0143644 0.00155291 0.00730124
0 0.00143551 0.00581971
0.00858378 0.000110574 0.00839606
0.00604955 7.84243e-05 0.00332452
0.0114091 0.00485166 0.00189786
0.0143665 0.00447885 0.00236945
0.00606991 0.0100745 0.00658869
0.00406627 0.01005 0.00277933
0.00188043 2.39695e-05 0.00239428
0 0.00727418 0.00419576
0.0143643 0.00595088 0.00648234
0.0100269 0.0101222 0.00295789
0.0107902 0.00876762 0.00985838
0 0.00574334 0.00336387
0 0.0043297 0.00416652
0.00986917 0.00590679 0.00987059
0.0143625 0.00320518 0.00673221
0.0060644 7.84821e-05 0.00659037
0.00355232 0.0100439 0.00856548
0.0107655 0.00150538 -0.000126275
0.00829291 0.00676984 0.00989089
0.0143689 0.0076936 0.00840057
0.0123754 0.00770387 0.00983813
0.00994286 0.00315 -0.000116923
0.00483075 0.00580587 -5.82532e-05
0.010829 0.00876364 -0.000127953
0.0108109 0.0101314 0.00125697
0.00831404 0.00697148 -9.9271e-05
0.0100273 0.00649649 0.00291045
0.0108035 0.000140185 0.00125809
0.00413576 0.00505091 0.00994561
0.00621499 0.00591149 0.00991801
0.00621364 0.00424473 0.00991821
0.0108057 0.0101299 0.00847642
0.00354905 4.57103e-05 0.00856675
0.0143662 0.00592162 0.00319131
0 0.00302218 0.00691532
0.014364 0.00419927 0.0083119
0.0122286 0.00417326 -0.000142422
0.0143693 0.00289335 0.00137715
0 0.00244495 0.00857025
0.00350578 0.00861405 0.00995388
0.0107978 0.000139366 0.00847784
0.0121985 0.0027783 0.00984093
0.0127209 0.00435368 0.00983355
0.00814846 0.0100995 0.00572988
0.00745083 0.00767671 0.00493846
0.00810992 0.010099 0.00411296
0.0100219 0.010122 0.0067993
0.00433483 0.00697035 0.00994289
0.00598608 0.00440717 -7.14029e-05
0.00406711 5.2526e-05 0.00435363
0.00452288 5.8694e-05 0.00576893
0.0143709 0.00437707 0.000961722
0.00522494 0.00840345 0.00152305
0.0143642 0.00450999 0.00399129
0.00958702 0.00589386 -0.000113878
0.0123551 0.0101496 0.00235729
0 0.00848692 0.00262374
0.00193551 0.0100251 0.00403472
0 0.00885053 0.00419359
0.00602758 0.00892584 -7.29154e-05
0.00604158 0.0100742 0.00161239
0.00718259 0.00488347 0.00229063
0.0103818 0.00465336 -0.000122172
0.00810266 0.00010455 0.00411545
0.00814162 0.000105088 0.00573185
0.00188033 0.0100241 0.00239332
0.0123259 0.00260364 -0.000143866
0.0143628 0.00470202 0.00703447
0.010229 0.0101247 0.00487187
0.00824718 0.00346832 0.00989159
0.0035264 4.61988e-05 0.00131249
0.014365 0.00262982 0.0083797
0.00343451 0.00483521 0.00495622
0.00838565 0.0044374 -9.91488e-05
0.0119646 0.00595694 -0.000139429
0.00787249 0.0100962 0.00711953
0.0143625 0.00451032 0.00565281
0.00776631 0.010095 0.00267879
0.0102216 0.000131168 0.00487349
0.0040697 0.0100503 0.00435157
0 0.00452174 0.00721958
0.0064907 0.00730095 0.00991425
0.00786565 0.000101526 0.00712064
0.00517222 0.00514035 0.00353067
0.00610649 0.0100747 0.00493001
0.00610085 7.92213e-05 0.00493253
0.0052681 0.00528394 0.00610807
0 0.005744 0.00499998
0 0.00433013 0.00583333
0.00718686 0.00583578 -8.56481e-05
0.00716174 0.00642999 0.00346408
0.00775932 0.0001003 0.00268069
0.0143645 0.00592095 0.00482148
0.0052975 0.0064758 0.00477666
0.008249 0.00510326 0.00989151
0.0143707 0.00595171 0.00142175
0 0.00666667 0
0.0123604 0.00767242 -0.000144142
0.00478618 6.28554e-05 -5.74048e-05
0 0.01 0.00666667
0.00718299 0.010087 0.00990555
0 0.00288419 0.00499914
0.0143734 0.00766345 0.00120931
0.014377 0.00684189 -0.000162525
0 0.005 0.01
0.00718394 0.00297716 -8.52229e-05
0 0.005 0
0.0143707 0.000191598 0.00316172
0.0143773 0.0101641 0.00648144
0.00602955 0.00735061 -7.25458e-05
0.0143632 0.003068 0.0048214
0.00718476 9.42071e-05 -8.56436e-05
0 0 0.00666667
0.005452 0.00368647 0.00515747
0.00717704 9.2508e-05 0.00990668
0.0143683 0.000191044 0.00648359
0 0 0.005
0.0126338 0.0101518 0.00107115
0.0143781 0.00894895 0.00105564
0.0143687 0.000191014 0.00482211
0.0143758 0.00518002 -0.000161376
0.00174783 0.00124255 -2.2114e-05
0 0.00122008 0.00122008
0 0.00333333 0.01
0 0.00666667 0.01
0.0126337 0.00893275 -0.000147277
0.0143793 0.0101637 0.00315925
0.00605467 0.0100741 0.0033223
0.0143727 0.0068413 0.00980442
0 0.00333333 0
0 0.00122008 0.00877992
0.00174591 2.20764e-05 0.00875828
0.00174572 0.00124209 0.00997772
0.0126276 0.0101504 0.00861511
0.0017466 0.00880202 0.00997762
0 0.00877992 0.00877992
0.014373 0.00894756 0.00858893
0.00959218 0.0101166 -0.000115293
0.0143722 0.00140954 0.00105565
0.00174708 0.0100221 0.00875762
0.0126264 0.00893057 0.00983394
0.0143712 0.00517851 0.009805
0 0 0.00333333
0.00958413 0.000125113 -0.000113372
0.0126254 0.000164466 0.0010715
0.0017355 2.22982e-05 0.00118981
0 0.00877992 0.00122008
0.00174706 0.00880268 -2.23817e-05
0.00173519 0.0100221 0.00118892
0.0143672 0.00140801 0.00858964
0.0126207 0.00138301 0.00983499
0.00957533 0.000123528 0.00987547
0.012628 0.00138486 -0.000146862
0.0126198 0.00016326 0.00861664
0.0143757 0.00351735 -0.000161101
0.00478428 0.0100581 0.00993685
0.00352805 0.0100436 0.00131139
0.00958332 0.0101153 0.00987447
0.0143699 0.00351527 0.00980482
0 0.01 0.005
0.00376618 0.00853489 -4.61675e-05
0.0143775 0.0101638 0.00482169
0 0.01 0.00333333
0 0.00166667 0
0.0143744 0.000191471 0.00150057
0 0.00166667 0.01
0 0.00833333 0
0.0143813 0.00850475 -0.000163134
0.0143698 0.000190664 0.00814552
0.0143833 0.0101656 0.00150043
0.0143786 0.0101643 0.00814386
0.00238841 0.0100292 0.00996907
0 0.01 0.00833333
0.0119946 0.0101441 -0.000141293
0.0119861 0.000157215 -0.000140483
0.0119784 0.000155344 0.00984423
0.0119864 0.0101422 0.00984301
0 0 0.00833333
0.0143761 0.00850167 0.00980537
0.00238936 3.15091e-05 -2.96655e-05
0 0 0.00166667
0.00478929 0.0100591 -5.85127e-05
0.0143708 0.00185408 0.00980607
0.0143771 0.00185619 -0.000161936
0.00238605 3.05743e-05 0.00996967
0.00238949 0.0100299 -3.02342e-05
0 0.01 0.00166667
0.0143817 0.010166 0.00980679
0 0 0.01
0.0143883 0.0101666 -0.00016441
0.0143734 0.000189494 0.00980867
0 0.01 0.01
0.0143801 0.000191193 -0.000163522
0 0.01 0
0 0 0
0.00719058 0.0100879 -8.7291e-05
0.00478017 6.16345e-05 0.00993757
0 0.00833333 0.01

CELLS 343 686
1 0
1 1
1 2
1 3
1 4
1 5
1 6
1 7
1 8
1 9
1 10
1 11
1 12
1 13
1 14
1 15
1 16
1 17
1 18
1 19
1 20
1 21
1 22
1 23
1 24
1 25
1 26
1 27
1 28
1 29
1 30
1 31
1 32
1 33
1 34
1 35
1 36
1 37
1 38
1 39
1 40
1 41
1 42
1 43
1 44
1 45
1 46
1 47
1 48
1 49
1 50
1 51
1 52
1 53
1 54
1 55
1 56
1 57
1 58
1 59
1 60
1 61
1 62
1 63
1 64
1 65
1 66
1 67
1 68
1 69
1 70
1 71
1 72
1 73
1 74
1 75
1 76
1 77
1 78
1 79
1 80
1 81
1 82
1 83
1 84
1 85
1 86
1 87
1 88
1 89
1 90
1 91
1 92
1 93
1 94
1 95
1 96
1 97
1 98
1 99
1 100
1 101
1 102
1 103
1 104
1 105
1 106
1 107
1 108
1 109
1 110
1 111
1 112
1 113
1 114
1 115
1 116
1 117
1 118
1 119
1 120
1 121
1 122
1 123
1 124
1 125
1 126
1 127
1 128
1 129
1 130
1 131
1 132
1 133
1 134
1 135
1 136
1 137
1 138
1 139
1 140
1 141
1 142
1 143
1 144
1 145
1 146
1 147
1 148
1 149
1 150
1 151
1 152
1 153
1 154
1 155
1 156
1 157
1 158
1 159
1 160
1 161
1 162
1 163
1 164
1 165
1 166
1 167
1 168
1 169
1 170
1 171
1 172
1 173
1 174
1 175
1 176
1 177
1 178
1 179
1 180
1 181
1 182
1 183
1 184
1 185
1 186
1 187
1 188
1 189
1 190
1 191
1 192
1 193
1 194
1 195
1 196
1 197
1 198
1 199
1 200
1 201
1 202
1 203
1 204
1 205
1 206
1 207
1 208
1 209
1 210
1 211
1 212
1 213
1 214
1 215
1 216
1 217
1 218
1 219
1 220
1 221
1 222
1 223
1 224
1 225
1 226
1 227
1 228
1 229
1 230
1 231
1 232
1 233
1 234
1 235
1 236
1 237
1 238
1 239
1 240
1 241
1 242
1 243
1 244
1 245
1 246
1 247
1 248
1 249
1 250
1 251
1 252
1 253
1 254
1 255
1 256
1 257
1 258
1 259
1 260
1 261
1 262
1 263
1 264
1 265
1 266
1 267
1 268
1 269
1 270
1 271
1 272
1 273
1 274
1 275
1 276
1 277
1 278
1 279
1 280
1 281
1 282
1 283
1 284
1 285
1 286
1 287
1 288
1 289
1 290
1 291
1 292
1 293
1 294
1 295
1 296
1 297
1 298
1 299
1 300
1 301
1 302
1 303
1 304
1 305
1 306
1 307
1 308
1 309
1 310
1 311
1 312
1 313
1 314
1 315
1 316
1 317
1 318
1 319
1 320
1 321
1 322
1 323
1 324
1 325
1 326
1 327
1 328
1 329
1 330
1 331
1 332
1 333
1 334
1 335
1 336
1 337
1 338
1 339
1 340
1 341
1 342

CELL_TYPES 343
1
1
1
1
1
1
1
1
1
1
1
1
1
1
1
1
1
1
1
1
1
1
1
1
1
1
1
1
1
1
1
1
1
1
1
1
1
1
1
1
1
1
1
1
1
1
1
1
1
1
1
1
1
1
1
1
1
1
1
1
1
1
1
1
1
1
1
1
1
1
1
1
1
1
1
1
1
1
1
1
1
1
1
1
1
1
1
1
1
1
1
1
1
1
1
1
1
1
1
1
1
1
1
1
1
1
1
1
1
1
1
1
1
1
1
1
1
1
1
1
1
1
1
1
1
1
1
1
1
1
1
1
1
1
1
1
1
1
1
1
1
1
1
1
1
1
1
1
1
1
1
1
1
1
1
1
1
1
1
1
1
1
1
1
1
1
1
1
1
1
1
1
1
1
1
1
1
1
1
1
1
1
1
1
1
1
1
1
1
1
1
1
1
1
1
1
1
1
1
1
1
1
1
1
1
1
1
1
1
1
1
1
1
1
1
1
1
1
1
1
1
1
1
1
1
1
1
1
1
1
1
1
1
1
1
1
1
1
1
1
1
1
1
1
1
1
1
1
1
1
1
1
1
1
1
1
1
1
1
1
1
1
1
1
1
1
1
1
1
1
1
1
1
1
1
1
1
1
1
1
1
1
1
1
1
1
1
1
1
1
1
1
1
1
1
1
1
1
1
1
1
1
1
1
1
1
1
1
1
1
1
1
1
1
1
1
1
1
1
1
1
1
1
1
1
1
1
1
1
1
1
1
1
1
1
1
1
1
1
1
1
1
1

POINT_DATA 343
FIELD FieldData 8

NodeID_(#) 1 343 int
0
1
2
3
4
5
6
7
8
9
10
11
12
13
14
15
16
17
18
19
20
21
22
23
24
25
26
27
28
29
30
31
32
33
34
35
36
37
38
39
40
41
42
43
44
45
46
47
48
49
50
51
52
53
54
55
56
57
58
59
60
61
62
63
64
65
66
67
68
69
70
71
72
73
74
75
76
77
78
79
80
81
82
83
84
85
86
87
88
89
90
91
92
93
94
95
96
97
98
99
100
101
102
103
104
105
106
107
108
109
110
111
112
113
114
115
116
117
118
119
120
121
122
123
124
125
126
127
128
129
130
131
132
133
134
135
136
137
138
139
140
141
142
143
144
145
146
147
148
149
150
151
152
153
154
155
156
157
158
159
160
161
162
163
164
165
166
167
168
169
170
171
172
173
174
175
176
177
178
179
180
181
182
183
184
185
186
187
188
189
190
191
192
193
194
195
196
197
198
199
200
201
202
203
204
205
206
207
208
209
210
211
212
213
214
215
216
217
218
219
220
221
222
223
224
225
226
227
228
229
230
231
232
233
234
235
236
237
238
239
240
241
242
243
244
245
246
247
248
249
250
251
252
253
254
255
256
257
258
259
260
261
262
263
264
265
266
267
268
269
270
271
272
273
274
275
276
277
278
279
280
281
282
283
284
285
286
287
288
289
290
291
292
293
294
295
296
297
298
299
300
301
302
303
304
305
306
307
308
309
310
311
312
313
314
315
316
317
318
319
320
321
322
323
324
325
326
327
328
329
330
331
332
333
334
335
336
337
338
339
340
341
342

Component_(#) 1 343 int
0
0
0
0
0
0
0
0
0
0
0
0
0
0
0
0
0
0
0
0
0
0
0
0
0
0
0
0
0
0
0
0
0
0
0
0
0
0
0
0
0
0
0
0
0
0
0
0
0
0
0
0
0
0
0
0
0
0
0
0
0
0
0
0
0
0
0
0
0
0
0
0
0
0
0
0
0
0
0
0
0
0
0
0
0
0
0
0
0
0
0
0
0
0
0
0
0
0
0
0
0
0
0
0
0
0
0
0
0
0
0
0
0
0
0
0
0
0
0
0
0
0
0
0
0
0
0
0
0
0
0
0
0
0
0
0
0
0
0
0
0
0
0
0
0
0
0
0
0
0
0
0
0
0
0
0
0
0
0
0
0
0
0
0
0
0
0
0
0
0
0
0
0
0
0
0
0
0
0
0
0
0
0
0
0
0
0
0
0
0
0
0
0
0
0
0
0
0
0
0
0
0
0
0
0
0
0
0
0
0
0
0
0
0
0
0
0
0
0
0
0
0
0
0
0
0
0
0
0
0
0
0
0
0
0
0
0
0
0
0
0
0
0
0
0
0
0
0
0
0
0
0
0
0
0
0
0
0
0
0
0
0
0
0
0
0
0
0
0
0
0
0
0
0
0
0
0
0
0
0
0
0
0
0
0
0
0
0
0
0
0
0
0
0
0
0
0
0
0
0
0
0
0
0
0
0
0
0
0
0
0
0
0
0
0
0
0
0
0
0
0
0
0
0
0
0
0
0
0
0
0
0
0
0
0
0
0
0
0
0
0
0
0

NodalMass_(kg) 1 343 double
3.15563e-06
1.41304e-05
2.20912e-06
1.71484e-05
8.42e-06
9.09306e-06
1.01179e-05
7.52198e-06
6.81096e-06
5.58223e-06
3.10888e-06
1.07575e-05
4.87011e-06
1.64955e-05
3.0246e-06
8.05984e-06
6.703e-06
1.0877e-05
4.18978e-06
8.16106e-06
6.14143e-06
1.17902e-05
2.23114e-06
4.25176e-06
1.09915e-05
7.41467e-06
4.21871e-06
3.92484e-06
3.08766e-06
1.31268e-05
7.72627e-06
1.65404e-05
1.19037e-05
7.97564e-06
3.81683e-06
1.11001e-05
3.81317e-06
1.39137e-05
6.37414e-06
8.00975e-06
7.6712e-06
1.21135e-05
1.6399e-05
2.78633e-06
8.93599e-06
2.58087e-06
7.57362e-06
4.23241e-06
1.31286e-05
3.80168e-06
2.7746e-06
7.16776e-06
1.21307e-05
5.11765e-06
8.19728e-06
4.58094e-06
2.79503e-06
3.26126e-06
4.12443e-06
2.11915e-06
3.35177e-06
3.61669e-06
1.56838e-05
7.33679e-06
8.24695e-06
5.00369e-06
2.82625e-06
7.20276e-06
3.26815e-06
4.18751e-06
2.02785e-06
2.42152e-06
3.11835e-06
5.97459e-06
5.87101e-06
4.09374e-06
5.45463e-06
2.28825e-06
4.49759e-06
4.38192e-06
4.50892e-06
4.39234e-06
4.27273e-06
5.32031e-06
1.53201e-06
2.38869e-06
2.02885e-06
4.38798e-06
3.17972e-06
3.14298e-06
4.61567e-06
5.87645e-06
8.18088e-06
2.48341e-06
1.53815e-05
3.49683e-06
7.35227e-06
2.01314e-06
2.0408e-06
7.98183e-06
4.41293e-06
7.1389e-06
1.20123e-06
5.03343e-06
1.61257e-06
4.12601e-06
8.73748e-06
4.37849e-06
7.97173e-06
2.13557e-06
3.38137e-06
9.48623e-06
7.40262e-06
1.80226e-06
2.10222e-06
7.98889e-06
1.87983e-06
7.44814e-06
4.19782e-06
2.37156e-06
4.31705e-06
6.06441e-06
4.30905e-06
2.16843e-06
1.8986e-06
1.81294e-06
3.89762e-06
2.44299e-06
1.65628e-06
8.01374e-06
1.64513e-06
2.3931e-06
3.01363e-06
2.99431e-06
1.36541e-06
1.87293e-06
2.09622e-06
1.94762e-06
1.87618e-06
6.37913e-06
4.58628e-06
2.02767e-06
1.61999e-06
2.41284e-06
3.8865e-06
4.44973e-06
2.29839e-06
1.17349e-05
3.11811e-06
1.354e-06
3.45063e-06
1.81846e-06
2.9382e-06
1.37381e-06
2.41464e-06
2.10451e-06
2.63927e-06
2.14166e-06
1.7943e-06
3.19976e-06
1.36989e-06
2.43489e-06
2.08158e-06
1.3601e-06
2.17203e-06
1.89924e-06
3.16996e-06
2.6119e-06
2.37677e-06
1.60225e-06
1.90684e-06
5.49206e-06
1.87878e-06
3.14313e-06
2.97301e-06
1.18454e-06
1.89263e-06
2.04166e-06
2.73572e-06
2.42405e-06
3.23083e-06
3.19752e-06
3.2142e-06
1.94492e-06
1.61196e-06
1.86876e-06
3.22435e-06
2.1114e-06
2.96917e-06
6.15288e-06
2.3097e-06
2.39729e-06
2.38029e-06
2.64508e-06
1.66557e-06
1.82377e-06
2.06583e-06
5.73271e-06
2.08467e-06
2.18324e-06
2.43522e-06
3.1188e-06
3.17316e-06
2.05447e-06
1.9592e-06
3.05718e-06
6.44327e-06
2.08796e-06
2.72615e-06
2.15709e-06
1.86812e-06
2.0028e-06
2.10999e-06
2.88994e-06
2.3222e-06
2.3979e-06
1.97629e-06
6.4127e-06
2.16225e-06
3.29198e-06
2.10223e-06
2.66566e-06
1.94415e-06
2.91865e-06
2.58116e-06
2.11703e-06
2.09534e-06
1.91719e-06
7.06046e-06
2.25203e-06
2.06378e-06
6.28159e-06
2.12147e-06
2.90924e-06
2.12921e-06
6.4487e-06
1.41701e-06
2.0682e-06
6.58062e-06
2.52584e-06
2.39732e-06
7.42191e-07
2.22368e-06
7.06751e-07
7.00657e-07
8.93749e-07
2.53536e-06
2.26535e-06
1.33607e-06
7.84725e-07
2.32303e-06
6.06694e-07
6.68276e-07
6.84307e-07
2.51242e-06
2.31629e-06
7.8367e-07
6.80839e-07
6.22692e-06
6.7471e-07
6.65305e-07
7.01158e-07
1.8232e-06
1.90695e-06
6.86722e-07
7.04792e-07
1.86445e-06
2.28572e-06
6.8045e-07
7.16005e-07
1.82373e-06
6.01079e-07
2.02791e-06
7.4579e-07
5.74423e-07
1.80052e-06
1.454e-06
2.2702e-06
1.80636e-06
2.15356e-06
1.79089e-06
1.79456e-06
6.8231e-07
2.24737e-06
1.45239e-06
1.79556e-06
6.97875e-07
6.24265e-07
6.62717e-07
1.44627e-06
1.40138e-06
2.15258e-06
1.82851e-06
1.3994e-06
1.43932e-06
2.19226e-06
6.97732e-07
1.77726e-06
1.79162e-06
6.54258e-07
7.3397e-07
2.34895e-06
7.10392e-07
6.56982e-07
6.26314e-07
2.18926e-06
6.12493e-07
6.03901e-07
5.92831e-07
5.12031e-07
5.11667e-07
4.9467e-07
4.97016e-07
4.96269e-07
5.33079e-07
4.94191e-07
4.97855e-07
4.86862e-07
4.90626e-07
4.94649e-07
4.94954e-07
4.91922e-07
4.89615e-07
4.96354e-07
4.95189e-07
4.82188e-07
1.10854e-06
5.3299e-07
5.44763e-07
5.36655e-07
5.15417e-07
5.01772e-07
5.53774e-07
5.53774e-07
5.53774e-07
5.53774e-07
5.53774e-07
5.53774e-07
5.50785e-07
5.50785e-07
7.45291e-07
7.11668e-07
4.9897e-07

NodalForce_(N) 3 343 double
-2.58432e-08 -5.39798e-09 -5.94382e-09
-6.26074e-08 -7.24858e-08 -6.38973e-08
0.000301829 2.49279e-05 0.000573514
-1.94888e-07 -4.40237e-08 -5.36541e-08
4.2061e-08 -1.84322e-07 -4.02143e-07
3.60323e-07 -2.20224e-07 -5.18846e-07
2.15491e-07 -4.95283e-07 -1.33523e-06
-7.50692e-08 -2.75392e-07 -5.91159e-07
3.97809e-07 -2.44149e-07 -7.72436e-07
1.10303e-07 -1.38804e-07 -2.48069e-07
2.22796e-07 -2.52945e-08 -2.01151e-07
6.35088e-07 -1.98686e-07 -8.17608e-07
1.98358e-07 -2.23873e-08 -2.6157e-07
1.72464e-07 -2.9058e-08 -8.00195e-08
2.40854e-07 -3.73545e-08 -2.06917e-07
6.58498e-07 -3.36351e-07 -9.68992e-07
2.28e-07 -2.58989e-07 -5.92878e-07
-1.07477e-08 -5.05256e-08 -6.87612e-08
0.000813738 0.000627552 0.000321309
-1.29619e-08 -1.94589e-08 -2.17067e-08
-2.18922e-07 -2.27179e-07 -6.14956e-07
8.65965e-08 -4.73799e-07 -1.62446e-06
0.00175043 -0.000371335 0.000360044
-3.06326e-07 -5.66306e-08 -2.18722e-07
-5.02375e-07 -2.10573e-07 -6.35617e-07
-2.71309e-07 -1.10831e-07 -2.99874e-07
-2.1593e-08 -1.63871e-10 -8.46065e-09
-1.96265e-07 -4.54819e-08 -1.65338e-07
-8.8774e-08 -2.94985e-08 -6.413e-08
5.5157e-08 -6.12816e-08 -5.89749e-08
-1.73934e-07 -1.54134e-07 -3.31514e-07
2.05269e-06 -7.67429e-07 -2.82568e-06
1.23908e-06 -5.84454e-07 -1.97771e-06
4.32823e-07 -4.53211e-07 -1.35068e-06
4.76061e-08 -2.52484e-07 -8.72326e-07
4.28843e-07 -5.20682e-07 -1.45654e-06
1.0457e-07 -1.70979e-07 -6.59931e-07
-5.59691e-07 -7.52733e-07 -2.10065e-06
1.42257e-07 -7.89561e-08 -1.56279e-07
4.78207e-07 -1.41756e-07 -4.79209e-07
7.51178e-08 -7.98551e-08 -1.74161e-07
9.91091e-07 -2.55497e-07 -8.43513e-07
4.63456e-07 -3.83845e-08 -1.27892e-07
1.21981e-07 -1.31092e-08 -4.78896e-08
3.76803e-07 -1.26621e-07 -2.53278e-07
0.00103871 -9.16009e-06 -0.000338931
4.0538e-08 -2.34598e-08 -2.12577e-08
0.000378571 0.000571652 -0.000484346
2.79464e-07 -7.29904e-08 -1.17483e-07
7.26712e-08 -8.73105e-09 -1.98784e-08
4.30137e-07 -1.02442e-07 -4.46769e-07
7.28042e-07 -2.26534e-07 -7.85834e-07
1.80598e-07 -6.07584e-08 -6.21869e-08
1.43936e-07 -4.99888e-08 -8.09182e-08
9.12166e-08 -2.50224e-08 -2.84492e-08
5.09366e-07 -3.04739e-07 -1.14192e-06
0.00081056 -0.00027113 1.89911e-05
-3.71451e-08 -1.19633e-08 -1.9176e-08
0.00191936 -0.000596543 0.000672281
1.82926e-07 -1.42155e-07 -5.15356e-07
1.99228e-07 -2.43371e-08 -1.10805e-07
-1.04591e-07 -1.97884e-07 -8.15052e-07
-1.23968e-06 -6.76445e-07 -2.29416e-06
-1.1836e-07 -3.77672e-07 -1.18051e-06
-6.70908e-08 -9.19383e-08 -1.45109e-07
9.01858e-08 5.68902e-09 -1.86968e-08
1.55315e-08 -2.26115e-09 -3.45904e-08
6.43954e-07 -2.18446e-07 -7.76948e-07
1.09576e-08 -2.28627e-07 -7.40894e-07
-1.30141e-07 -1.5971e-07 -6.95448e-07
-1.12773e-07 -2.29611e-08 -6.84483e-08
1.20019e-07 -4.23709e-09 -7.0688e-08
-5.51186e-08 -1.34242e-08 -3.77457e-08
3.67881e-07 -1.2948e-07 -3.65084e-07
-4.41634e-08 -5.64858e-08 -7.31922e-08
0.00133348 -0.000310635 -0.00051302
-5.00481e-08 -1.20868e-07 -2.29455e-07
-3.80556e-08 -2.10826e-09 -1.11694e-08
6.50271e-07 -1.02456e-07 -5.30482e-07
5.4484e-07 -8.89436e-08 -4.85842e-07
3.94016e-07 -5.31515e-08 -2.56097e-07
4.58767e-07 -4.93934e-08 -2.90706e-07
2.45981e-07 -2.82002e-07 -1.00502e-06
3.62259e-08 -6.79955e-08 -6.91819e-08
0.00119908 0.000359816 0.000218886
-1.07663e-08 -5.21237e-09 -7.87132e-09
0.00120977 -0.000137858 -0.00028241
0.00181093 -0.00024169 -0.000502665
0.00104812 0.000791789 -0.000558295
-1.13171e-07 -2.22622e-08 -5.98103e-08
1.16537e-07 -8.21729e-09 -2.69229e-08
3.17074e-07 -1.52057e-07 -3.50962e-07
4.92233e-07 -9.47644e-08 -3.30184e-07
3.05111e-07 -7.27101e-08 -3.67076e-07
1.32777e-06 -5.86673e-07 -2.52519e-06
-1.93415e-07 -9.43725e-08 -3.63225e-07
-2.20845e-07 -1.87868e-07 -5.32821e-07
-8.99337e-08 -1.24265e-07 -4.53102e-07
0.00179737 0.000812794 -4.2457e-05
6.03283e-07 -2.61152e-07 -7.62716e-07
-4.45224e-07 -1.02394e-07 -4.12373e-07
-4.26075e-07 -2.20514e-07 -6.4117e-07
4.55852e-08 -7.00521e-09 -2.09305e-08
3.79686e-07 -2.05876e-07 -8.90448e-07
-7.397e-08 -1.00721e-08 -3.31316e-08
-3.26586e-07 -8.33192e-08 -3.61157e-07
8.81928e-08 -3.09343e-07 -7.34859e-07
7.12277e-08 -1.62278e-07 -7.46257e-07
2.73582e-07 -1.97274e-07 -6.87268e-07
2.99681e-08 -2.02341e-09 -9.95008e-09
-2.80369e-07 -1.62758e-07 -4.75124e-07
-1.59275e-07 -2.72401e-07 -6.04948e-07
-3.33451e-07 -2.76612e-07 -6.68001e-07
0.000664809 0.000394187 -0.000453111
-1.5749e-07 -1.17104e-07 -4.70687e-07
5.44605e-08 -2.17835e-08 -3.1794e-08
-6.44409e-08 -1.30575e-07 -4.347e-07
2.74168e-08 -4.38503e-07 -1.19948e-06
-1.04137e-07 -1.10989e-07 -4.03824e-07
9.91581e-08 -5.41027e-08 -2.71969e-07
7.89311e-08 -2.28419e-07 -9.9108e-07
2.59641e-07 -3.1214e-07 -1.01996e-06
-3.1768e-09 1.05346e-09 -9.44519e-09
0.00145771 0.000170227 0.000407661
7.15908e-09 2.82098e-09 -5.22905e-10
8.52009e-08 -1.25865e-07 -4.24632e-07
-2.46874e-07 -1.32088e-07 -3.97061e-07
0.00168287 0.000473489 -0.000789014
4.58484e-08 1.67459e-09 -1.22234e-08
1.21798e-07 -1.53866e-07 -2.26159e-07
2.00585e-07 -6.54904e-08 -3.14157e-07
2.55135e-07 -1.53049e-07 -5.92366e-07
3.15176e-07 -5.74786e-08 -3.30049e-07
4.11772e-07 -1.13116e-07 -4.78817e-07
0.00118365 -0.000156558 0.000422035
3.80998e-08 -8.64639e-10 -3.39192e-09
0.00144758 -0.000329477 0.000418238
-1.51258e-07 -7.62602e-08 -3.22259e-07
-8.05204e-08 -1.39671e-07 -4.27556e-07
-3.21252e-07 -3.97145e-07 -1.05689e-06
7.40323e-07 -2.32067e-07 -9.39522e-07
2.4759e-07 -6.15783e-08 -3.36058e-07
1.00121e-07 -5.65338e-08 -2.92791e-07
1.54438e-07 -1.20451e-07 -5.73495e-07
0.00107687 0.000554156 -0.000773458
3.02779e-07 -6.56793e-08 -4.48703e-07
-6.18972e-08 -2.26939e-08 -6.76241e-08
-7.06222e-07 -6.02044e-07 -1.69129e-06
-1.86858e-07 -2.0876e-07 -7.00068e-07
8.66664e-08 -1.60078e-08 -5.53314e-08
5.9265e-08 -1.2568e-08 -4.39875e-08
-1.46488e-08 -1.94568e-09 6.75968e-10
0.00229971 0.000724818 -1.99024e-05
9.11711e-08 -9.46806e-08 -3.26122e-07
8.10852e-09 -7.85906e-08 -2.70567e-07
3.54086e-07 -7.38267e-08 -3.7143e-07
0.00149321 0.000117207 -0.000686494
0.00097531 0.000830158 0.00178441
2.57396e-07 -6.45424e-08 -2.68672e-07
1.85061e-07 -1.97142e-07 -7.54883e-07
2.31465e-08 -8.48934e-09 -4.77356e-08
1.29106e-07 -1.04362e-08 -4.76549e-08
-2.5337e-07 -7.49839e-08 -3.04282e-07
1.79378e-07 -3.64137e-08 -1.5987e-07
2.80925e-07 -1.40639e-07 -5.50415e-07
3.29089e-07 -9.15076e-08 -4.02126e-07
-3.35013e-07 -1.20944e-07 -4.07363e-07
-1.14871e-07 -3.68176e-08 -9.23171e-08
-1.90386e-07 -1.16472e-07 -3.71836e-07
-6.45379e-08 -6.38524e-08 -2.33081e-07
-1.35298e-07 -6.83879e-08 -1.92376e-07
-1.04916e-07 -2.55524e-07 -5.90878e-07
-1.83019e-07 -5.71651e-08 -2.51949e-07
2.03293e-07 -1.41785e-08 -1.1198e-07
2.976e-07 -4.35556e-08 -2.22731e-07
1.06264e-07 -1.6626e-08 -8.75097e-08
2.74666e-07 -5.9442e-08 -3.09546e-07
3.94415e-08 2.3778e-09 -3.01908e-08
-7.7302e-08 -1.95755e-07 -6.1373e-07
0.00182826 -9.25461e-05 0.00029023
3.44944e-07 -2.04529e-07 -8.00871e-07
-3.90343e-07 -1.77665e-07 -5.87323e-07
-3.12801e-07 -1.9968e-07 -7.20344e-07
0.00140593 -0.000188355 -0.00031343
1.08439e-07 -5.87279e-09 -4.80363e-08
1.59262e-07 -4.61229e-08 -2.83815e-07
4.55647e-07 -1.36847e-07 -6.45792e-07
3.20913e-07 -1.09259e-07 -4.54277e-07
2.02635e-07 -5.87254e-08 -2.09491e-07
2.25893e-07 -1.6345e-07 -3.16969e-07
7.6649e-08 -4.89434e-08 -1.50596e-07
2.40707e-07 -6.91051e-08 -2.89395e-07
1.77896e-07 -1.73621e-08 -9.94257e-08
-1.67133e-07 -4.83088e-08 -1.45976e-07
-1.31071e-08 -5.00874e-09 -1.17144e-08
-1.65478e-09 -4.51929e-09 -2.10604e-08
-2.06789e-07 -1.41611e-07 -4.72841e-07
-5.43877e-08 -9.06861e-08 -2.04244e-07
-2.68977e-08 -1.40098e-07 -4.71754e-07
-1.9113e-07 -9.99943e-08 -2.72747e-07
-4.61267e-08 -1.1334e-07 -4.27018e-07
0.00152719 -0.000321198 -0.000109809
3.85101e-08 3.61221e-09 -8.55631e-09
0.00133575 -0.000635015 3.72033e-05
-7.78338e-08 -3.78923e-08 -1.16515e-07
-1.75289e-08 -3.79774e-08 -1.43647e-07
-1.82705e-07 -1.6438e-07 -3.58989e-07
-2.10481e-07 -9.60677e-08 -2.91486e-07
-6.27891e-08 -4.6452e-08 -1.58366e-07
2.88829e-08 -3.34538e-08 -1.39232e-07
1.39631e-08 2.60703e-09 -1.64166e-09
-2.63575e-07 -1.01051e-07 -3.68544e-07
1.57132e-07 -1.39358e-07 -5.05485e-07
1.49866e-07 -9.08149e-08 -3.40344e-07
2.59772e-07 -5.18802e-08 -2.58152e-07
-6.78911e-08 -1.31565e-08 -2.55561e-08
1.96761e-07 -1.0955e-07 -4.8678e-07
4.71973e-08 -4.40677e-08 -5.01208e-08
-1.8398e-07 -7.00497e-08 -2.15013e-07
-3.57755e-07 -2.08792e-07 -5.99101e-07
1.91322e-07 -3.80885e-08 -1.63743e-07
9.24286e-08 -1.78253e-07 -6.19645e-07
1.05924e-08 -4.16528e-08 -1.28438e-07
-2.00121e-08 -7.7421e-08 -3.25469e-07
6.6914e-08 -9.34415e-09 -2.75292e-08
0.00166105 0.000291081 0.000737103
2.3353e-07 -3.24778e-08 -1.68454e-07
7.32725e-08 -2.53736e-08 -1.38028e-07
1.23053e-08 -1.0132e-07 -1.1613e-07
9.22812e-08 -2.54601e-08 -7.1985e-08
-1.37778e-08 -1.659e-08 -4.86487e-08
1.57647e-07 -8.97463e-08 -1.4398e-07
0.00201437 -0.00140757 8.29539e-05
0.00188253 0.000708392 -0.0011708
-1.43413e-07 -6.43729e-08 -1.68022e-07
1.24736e-08 -1.70313e-07 -2.87705e-07
-6.76388e-08 -2.39007e-08 -8.7101e-08
3.97291e-08 -1.47145e-07 -4.74832e-07
1.19895e-07 -1.00858e-07 -1.2233e-07
3.04463e-07 -6.49585e-08 -2.90011e-07
-1.88335e-07 -1.76944e-07 -5.48038e-07
0.000840959 0.000726595 2.75521e-05
-2.25359e-07 -1.37581e-07 -4.30079e-07
-4.40574e-08 -4.73507e-10 -2.8263e-08
0.00089253 -1.75127e-05 -0.000978174
1.21336e-07 -6.58886e-09 -9.10411e-08
0.00206445 -0.00113901 0.000145213
-1.71135e-07 -1.7129e-07 -5.25363e-07
-1.5601e-07 -1.00946e-07 -3.2847e-07
0.000772527 -0.00106834 0.000133916
-1.88562e-07 -5.12084e-08 -1.72039e-07
0.00076295 0.00120766 -4.80719e-05
-3.92105e-08 -3.10987e-08 -1.49367e-07
6.03351e-08 -3.43505e-08 -1.64841e-07
-1.18841e-07 -5.28245e-08 -1.4832e-07
7.49953e-09 -1.43807e-07 -5.30155e-07
-7.29245e-08 -7.10966e-09 -6.05156e-08
0.000667631 -0.00016604 0.00079553
6.2384e-08 -8.81029e-08 -1.24778e-07
5.40484e-08 -1.03943e-08 -6.27602e-08
2.32173e-08 -3.03482e-08 -1.53895e-07
0.000419544 -0.000441875 0.00103141
-1.00602e-07 -9.32793e-08 -3.49436e-07
-1.37907e-07 -1.33746e-07 -4.47883e-07
-7.89944e-09 -3.18916e-08 -1.55616e-07
-8.83087e-08 -5.30449e-08 -1.71701e-07
-2.52322e-08 -1.86153e-09 -6.85682e-09
0.000980319 0.000541285 2.7163e-05
0.000657913 -0.00098952 0.00019643
0.000694319 -0.000982353 0.000124449
-1.72584e-07 -1.11594e-07 -3.66141e-07
-3.83791e-09 -3.44105e-08 -1.38471e-07
4.05253e-08 -2.40828e-08 -6.23723e-08
1.21695e-07 -4.76872e-08 -1.99025e-07
0.000781649 0.000472045 0.000153542
0.000419588 0.000349976 -0.00052446
9.01918e-09 1.57276e-09 -6.03135e-09
2.36458e-08 -1.43293e-09 -7.32878e-09
2.80329e-07 -7.08346e-08 -3.8397e-07
5.46462e-08 -4.90133e-10 -1.39568e-08
0.000623421 -0.000197931 -0.000304101
2.5521e-07 -1.06485e-07 -4.62706e-07