# vtk DataFile Version 4.2
vtk output
ASCII
DATASET UNSTRUCTURED_GRID

POINTS 343 double
0.00161175 0.00421624 -2.0625e-05
0.00311715 0.00502399 0.00213531
0 0.00419538 0.00112517
0.00277472 0.0019911 0.00190663
0.00744677 0.00251093 0.00493969
0.00744347 0.0039319 0.00630422
0.0109751 0.00492845 0.00486382
0.00896156 0.0049743 0.00358164
0.0098459 0.00342645 0.00679092
0.00717994 0.00509032 0.00491028
0.00601941 0.0012019 0.00992138
0.00760559 0.00218645 0.00780767
0.00603914 7.75413e-05 0.00824109
0.00289028 0.00204013 0.00799676
0.00616711 0.00261713 0.00991912
0.0100051 0.00658383 0.00682138
0.0092267 0.00630897 0.00506882
0.00324941 0.00222766 0.0051049
0 0.00143586 0.00417514
0.00228978 0.00349617 0.00400774
0.0098524 0.00333266 0.00304174
0.0111644 0.00237324 0.00492648
0 0.00270918 0.00154168
0.00599738 0.00151346 -7.14865e-05
0.00721863 0.00228934 0.00210944
0.00570522 0.00360504 0.00153319
0.00193515 2.43858e-05 0.00403557
0.00603643 7.81594e-05 0.0016139
0.00377339 0.00700227 -4.59343e-05
0.00277824 0.0080895 0.00190893
0.00587842 0.00632743 0.00157279
0.0115064 0.00814207 0.00785129
0.0114651 0.00497588 0.00787687
0.0120684 0.00624753 0.00579757
0.0143713 0.00901764 0.00401895
0.0108971 0.0077846 0.00482927
0.0123149 0.0101485 0.0040166
0.0114769 0.00812862 0.00187818
0.00508557 0.00310479 0.00689579
0.00638268 0.00374811 0.00824214
0.00560549 0.00167835 0.00589889
0.00718934 0.00776447 0.0075854
0.00285091 0.0080454 0.00795352
0.00405213 0.0100501 0.00707556
0.00562181 0.00847407 0.00588665
0 0.00695361 0.00262895
0.00236178 0.00627044 0.00405762
0 0.0040177 0.00850214
0.00332174 0.00502913 0.00761952
0.00205544 0.0042008 0.0099739
0.0103144 0.00725776 0.00986504
0.00879696 0.00609024 0.008305
0.00294168 0.00798032 0.0047041
0.00436909 0.0070013 0.00641283
0.00227616 0.0061083 0.0058969
0.0143649 0.00598366 0.0081289
0 0.00718191 0.00711644
0.00227384 0.00580395 -2.88458e-05
0 0.00577432 0.00158701
0.0143667 0.00735451 0.00693203
0.00411959 0.00340352 0.00994571
0.0143638 0.00162191 0.00400163
0.0115908 0.00211029 0.00184099
0.0120851 0.00367361 0.00385123
0.00536708 0.00172263 0.00406076
0.00216031 0.0100277 0.00578717
0.00404796 5.23276e-05 0.00707721
0.00879235 0.00429228 0.00826354
0.0143673 0.00744868 0.00402176
0.0123053 0.000155905 0.00401806
0.00481323 0.00293596 -5.77839e-05
0.00388276 0.00159097 0.00994904
0.00406354 5.27736e-05 0.00278083
0.00689837 0.00528725 0.00746644
0.00454334 0.00320748 0.00310951
0 0.00849157 0.00581511
0.00700421 0.00376601 0.00369896
0.00220915 0.00273779 -2.79428e-05
0.00832938 0.00842707 0.00989042
0.00859171 0.0101041 0.00839528
0.00604491 0.0100741 0.00823993
0.00576518 0.00857461 0.00992368
0.0143685 0.0086598 0.00563406
0.00452053 0.00689437 0.00309268
0 0.00748929 0.00137438
0.00196851 0.007515 -2.51448e-05
0 0.00287343 0.00335182
0 0.00580816 0.00831736
0 0.00429792 0.00253898
0.00364367 0.00434514 -4.43388e-05
0.00205497 0.00584564 0.00997381
0.00743896 0.00656916 0.00630636
0.00517407 0.00657782 0.00816741
0.00998461 0.00275349 0.0098696
0.0115296 0.00210447 0.00788835
0.0100187 0.000128065 0.00296025
0.00865156 0.0017754 0.00350666
0.0143647 0.00305568 0.00317988
0 0.00140616 0.00256446
0.00915929 0.00834029 0.00630555
0.00836479 0.00154355 -9.86109e-05
0.00867812 0.00366265 0.00149878
0.00452711 0.0100558 0.00576686
0.0123053 0.0101486 0.00567853
0.00368033 0.00145397 -4.46497e-05
0.00858961 0.000110593 0.00139065
0.00902899 0.00839906 0.00350547
0.0122965 0.000155821 0.00567988
0.00891653 0.00178697 0.00625356
0.00201237 0.0025896 0.00997433
0.0102368 0.00730825 -0.000121217
0.00742652 0.00778287 0.00207721
0.00854463 0.00620079 0.00149857
0 0.00686719 0.00578184
0.0143671 0.00159289 0.00239556
0.00254415 0.00364299 0.00637552
0.0143731 0.00865483 0.00245268
0.0120924 0.00633826 0.00398499
0.00859814 0.0101048 0.00138888
0.0100136 0.00012777 0.00680108
0.0143624 0.00162109 0.00563954
0.0120679 0.00372468 0.00590976
0.00215953 2.71899e-05 0.00578798
0 0.0013659 0.00748679
0.00195987 2.47312e-05 0.00750452
0.0143659 0.00704119 0.00560024
0.00836436 0.00859519 -0.000100065
0 0.0075208 0.00859127
0.0019553 0.0075115 0.00997512
0.00607703 0.00828151 0.00355107
0.0123532 0.0101477 0.00735414
0.0143704 0.00879781 0.00733987
0.00829039 0.00169266 0.0098916
0.0104293 0.00431835 0.00986347
0 0.0057735 0.00666667
0.00196101 0.0100251 0.00750361
0 0.00863025 0.00752641
0.0123468 0.000157924 0.00235926
0.0143691 0.00712868 0.00245848
0.012164 0.00649159 0.00201763
0.0122307 0.0059742 0.00984102
0.01076 0.00151108 0.00986
0.0123441 0.000157494 0.00735603
0.0143636 0.0015515 0.00730185
0 0.00143551 0.00581971
0.00858296 0.000109947 0.00839631
0.00604914 7.8067e-05 0.00332469
0.0114092 0.00485075 0.00189833
0.0143665 0.00447749 0.0023701
0.00607027 0.0100743 0.00658882
0.00406665 0.0100499 0.00277939
0.00188035 2.39535e-05 0.00239429
0 0.00727418 0.00419576
0.0143643 0.00594955 0.00648296
0.0100277 0.0101215 0.00295826
0.0107904 0.00876682 0.00985871
0 0.00574334 0.00336387
0 0.0043297 0.00416652
0.00986897 0.00590613 0.00987088
0.014362 0.00320381 0.00673283
0.00606385 7.81264e-05 0.00659051
0.00355248 0.0100438 0.00856552
0.0107652 0.00150447 -0.00012588
0.00829283 0.00676938 0.00989109
0.0143689 0.00769231 0.00840114
0.0123754 0.00770287 0.00983855
0.00994285 0.00314925 -0.000116576
0.00483101 0.00580573 -5.81742e-05
0.0108298 0.00876283 -0.00012757
0.0108118 0.0101305 0.00125738
0.00831453 0.00697099 -9.9034e-05
0.0100276 0.0064958 0.00291083
0.010803 0.000139252 0.00125854
0.00413562 0.0050508 0.00994567
0.00621482 0.00591125 0.00991813
0.00621335 0.00424446 0.00991833
0.0108061 0.0101291 0.0084768
0.00354868 4.55722e-05 0.00856679
0.0143663 0.00592028 0.00319196
0 0.00302218 0.00691532
0.0143636 0.00419793 0.00831248
0.0122287 0.00417221 -0.000141946
0.0143691 0.00289196 0.0013778
0 0.00244495 0.00857025
0.00350582 0.00861395 0.00995391
0.0107968 0.000138433 0.0084782
0.0121978 0.00277724 0.00984135
0.0127205 0.00435258 0.00983399
0.00814895 0.0100991 0.00573013
0.0074511 0.00767632 0.00493868
0.00811051 0.0100985 0.00411321
0.0100224 0.0101213 0.00679964
0.00433478 0.00697026 0.00994294
0.00598626 0.00440692 -7.12665e-05
0.0040668 5.23479e-05 0.00435371
0.00452248 5.84922e-05 0.00576903
0.0143709 0.0043757 0.000962358
0.00522533 0.00840324 0.00152317
0.0143641 0.00450864 0.00399194
0.00958739 0.0058932 -0.000113565
0.0123559 0.0101486 0.0023578
0 0.00848692 0.00262374
0.00193562 0.0100251 0.00403474
0 0.00885053 0.00419359
0.00602815 0.00892556 -7.27826e-05
0.00604219 0.0100739 0.00161255
0.0071827 0.00488312 0.00229085
0.010382 0.00465257 -0.000121806
0.00810211 0.000103969 0.00411574
0.00814099 0.000104507 0.0057321
0.00188047 0.0100241 0.00239332
0.0123257 0.00260254 -0.000143381
0.0143625 0.00470068 0.00703508
0.0102296 0.010124 0.00487224
0.00824672 0.00346782 0.00989179
0.00352622 4.60705e-05 0.00131255
0.0143644 0.00262843 0.00838029
0.00343451 0.00483514 0.00495627
0.00838582 0.00443687 -9.88869e-05
0.0119649 0.00595595 -0.000138979
0.0078729 0.0100958 0.00711975
0.0143623 0.00450897 0.00565345
0.00776697 0.0100946 0.00267903
0.0102209 0.000130331 0.00487389
0.00407002 0.0100502 0.00435164
0 0.00452174 0.00721958
0.00649067 0.00730067 0.00991437
0.00786495 0.000100982 0.00712085
0.00517228 0.00514018 0.00353079
0.00610694 0.0100744 0.00493016
0.00610036 7.88575e-05 0.0049327
0.00526807 0.00528377 0.00610819
0 0.005744 0.00499998
0 0.00433013 0.00583333
0.00718719 0.00583544 -8.54565e-05
0.00716195 0.00642965 0.0034643
0.00775886 9.97588e-05 0.00268096
0.0143645 0.00591962 0.00482212
0.00529759 0.00647563 0.00477677
0.00824873 0.00510281 0.00989171
0.0143709 0.00595036 0.00142239
0 0.00666667 0
0.012361 0.00767139 -0.000143673
0.004786 6.25882e-05 -5.72991e-05
0 0.01 0.00666667
0.00718322 0.0100866 0.0099057
0 0.00288419 0.00499914
0.0143738 0.00766214 0.00120994
0.0143775 0.00684056 -0.00016193
0 0.005 0.01
0.00718396 0.00297675 -8.50337e-05
0 0.005 0
0.01437 0.000190158 0.00316238
0.0143778 0.0101628 0.00648205
0.00602998 0.00735037 -7.24139e-05
0.0143628 0.00306663 0.00482204
0.00718448 9.37106e-05 -8.54374e-05
0 0 0.00666667
0.00545188 0.00368627 0.00515759
0.00717628 9.20057e-05 0.00990681
0.0143674 0.000189609 0.00648421
0 0 0.005
0.0126347 0.0101508 0.00107167
0.0143788 0.00894765 0.00105627
0.0143679 0.000189579 0.00482275
0.014376 0.00517865 -0.000160776
0.00174782 0.00124251 -2.21136e-05
0 0.00122008 0.00122008
0 0.00333333 0.01
0 0.00666667 0.01
0.0126345 0.00893169 -0.000146791
0.01438 0.0101624 0.00315989
0.0060552 0.0100738 0.00332245
0.0143725 0.00684001 0.00980496
0 0.00333333 0
0 0.00122008 0.00877992
0.00174576 2.20411e-05 0.00875828
0.0017456 0.00124207 0.00997773
0.012628 0.0101493 0.00861559
0.00174661 0.008802 0.00997762
0 0.00877992 0.00877992
0.0143732 0.00894628 0.0085895
0.00959309 0.010116 -0.000114988
0.0143718 0.00140811 0.0010563
0.00174713 0.0100221 0.00875765
0.0126266 0.00892953 0.00983439
0.0143708 0.00517718 0.00980555
0 0 0.00333333
0.00958374 0.000124338 -0.00011303
0.0126249 0.000163271 0.00107205
0.00173544 2.22716e-05 0.00118984
0 0.00877992 0.00122008
0.0017472 0.00880266 -2.23787e-05
0.00173535 0.0100221 0.00118893
0.0143663 0.00140659 0.00859021
0.0126198 0.00138184 0.00983543
0.00957439 0.00012275 0.00987571
0.0126277 0.00138368 -0.000146353
0.0126188 0.000162069 0.0086171
0.0143757 0.00351596 -0.000160495
0.00478444 0.0100579 0.00993692
0.00352843 0.0100435 0.00131143
0.00958365 0.0101146 0.00987474
0.0143693 0.00351391 0.00980537
0 0.01 0.005
0.00376653 0.00853479 -4.61226e-05
0.0143781 0.0101625 0.00482232
0 0.01 0.00333333
0 0.00166667 0
0.0143738 0.000190022 0.00150123
0 0.00166667 0.01
0 0.00833333 0
0.014382 0.00850344 -0.000162547
0.0143688 0.000189219 0.0081461
0.0143841 0.0101643 0.00150106
0.0143791 0.010163 0.00814445
0.00238849 0.0100291 0.00996909
0 0.01 0.00833333
0.0119955 0.0101431 -0.000140842
0.0119856 0.000156106 -0.000140007
0.0119774 0.000154228 0.00984461
0.0119868 0.0101412 0.00984341
0 0 0.00833333
0.0143762 0.00850038 0.00980592
0.00238926 3.1427e-05 -2.96378e-05
0 0 0.00166667
0.00478986 0.0100589 -5.8435e-05
0.01437 0.00185267 0.00980661
0.0143768 0.00185476 -0.000161324
0.00238581 3.0497e-05 0.00996968
0.00238976 0.0100299 -3.02163e-05
0 0.01 0.00166667
0.014382 0.0101647 0.00980734
0 0 0.01
0.0143892 0.0101653 -0.000163823
0.0143723 0.000188042 0.00980919
0 0.01 0.01
0.0143796 0.000189738 -0.000162899
0 0.01 0
0 0 0
0.00719135 0.0100875 -8.71127e-05
0.00477963 6.13822e-05 0.00993761
0 0.00833333 0.01

CELLS 343 686
1 0
1 1
1 2
1 3
1 4
1 5
1 6
1 7
1 8
1 9
1 10
1 11
1 12
1 13
1 14
1 15
1 16
1 17
1 18
1 19
1 20
1 21
1 22
1 23
1 24
1 25
1 26
1 27
1 28
1 29
1 30
1 31
1 32
1 33
1 34
1 35
1 36
1 37
1 38
1 39
1 40
1 41
1 42
1 43
1 44
1 45
1 46
1 47
1 48
1 49
1 50
1 51
1 52
1 53
1 54
1 55
1 56
1 57
1 58
1 59
1 60
1 61
1 62
1 63
1 64
1 65
1 66
1 67
1 68
1 69
1 70
1 71
1 72
1 73
1 74
1 75
1 76
1 77
1 78
1 79
1 80
1 81
1 82
1 83
1 84
1 85
1 86
1 87
1 88
1 89
1 90
1 91
1 92
1 93
1 94
1 95
1 96
1 97
1 98
1 99
1 100
1 101
1 102
1 103
1 104
1 105
1 106
1 107
1 108
1 109
1 110
1 111
1 112
1 113
1 114
1 115
1 116
1 117
1 118
1 119
1 120
1 121
1 122
1 123
1 124
1 125
1 126
1 127
1 128
1 129
1 130
1 131
1 132
1 133
1 134
1 135
1 136
1 137
1 138
1 139
1 140
1 141
1 142
1 143
1 144
1 145
1 146
1 147
1 148
1 149
1 150
1 151
1 152
1 153
1 154
1 155
1 156
1 157
1 158
1 159
1 160
1 161
1 162
1 163
1 164
1 165
1 166
1 167
1 168
1 169
1 170
1 171
1 172
1 173
1 174
1 175
1 176
1 177
1 178
1 179
1 180
1 181
1 182
1 183
1 184
1 185
1 186
1 187
1 188
1 189
1 190
1 191
1 192
1 193
1 194
1 195
1 196
1 197
1 198
1 199
1 200
1 201
1 202
1 203
1 204
1 205
1 206
1 207
1 208
1 209
1 210
1 211
1 212
1 213
1 214
1 215
1 216
1 217
1 218
1 219
1 220
1 221
1 222
1 223
1 224
1 225
1 226
1 227
1 228
1 229
1 230
1 231
1 232
1 233
1 234
1 235
1 236
1 237
1 238
1 239
1 240
1 241
1 242
1 243
1 244
1 245
1 246
1 247
1 248
1 249
1 250
1 251
1 252
1 253
1 254
1 255
1 256
1 257
1 258
1 259
1 260
1 261
1 262
1 263
1 264
1 265
1 266
1 267
1 268
1 269
1 270
1 271
1 272
1 273
1 274
1 275
1 276
1 277
1 278
1 279
1 280
1 281
1 282
1 283
1 284
1 285
1 286
1 287
1 288
1 289
1 290
1 291
1 292
1 293
1 294
1 295
1 296
1 297
1 298
1 299
1 300
1 301
1 302
1 303
1 304
1 305
1 306
1 307
1 308
1 309
1 310
1 311
1 312
1 313
1 314
1 315
1 316
1 317
1 318
1 319
1 320
1 321
1 322
1 323
1 324
1 325
1 326
1 327
1 328
1 329
1 330
1 331
1 332
1 333
1 334
1 335
1 336
1 337
1 338
1 339
1 340
1 341
1 342

CELL_TYPES 343
1
1
1
1
1
1
1
1
1
1
1
1
1
1
1
1
1
1
1
1
1
1
1
1
1
1
1
1
1
1
1
1
1
1
1
1
1
1
1
1
1
1
1
1
1
1
1
1
1
1
1
1
1
1
1
1
1
1
1
1
1
1
1
1
1
1
1
1
1
1
1
1
1
1
1
1
1
1
1
1
1
1
1
1
1
1
1
1
1
1
1
1
1
1
1
1
1
1
1
1
1
1
1
1
1
1
1
1
1
1
1
1
1
1
1
1
1
1
1
1
1
1
1
1
1
1
1
1
1
1
1
1
1
1
1
1
1
1
1
1
1
1
1
1
1
1
1
1
1
1
1
1
1
1
1
1
1
1
1
1
1
1
1
1
1
1
1
1
1
1
1
1
1
1
1
1
1
1
1
1
1
1
1
1
1
1
1
1
1
1
1
1
1
1
1
1
1
1
1
1
1
1
1
1
1
1
1
1
1
1
1
1
1
1
1
1
1
1
1
1
1
1
1
1
1
1
1
1
1
1
1
1
1
1
1
1
1
1
1
1
1
1
1
1
1
1
1
1
1
1
1
1
1
1
1
1
1
1
1
1
1
1
1
1
1
1
1
1
1
1
1
1
1
1
1
1
1
1
1
1
1
1
1
1
1
1
1
1
1
1
1
1
1
1
1
1
1
1
1
1
1
1
1
1
1
1
1
1
1
1
1
1
1
1
1
1
1
1
1
1
1
1
1
1
1
1
1
1
1
1
1
1
1
1
1
1
1
1
1
1
1
1
1

POINT_DATA 343
FIELD FieldData 8

NodeID_(#) 1 343 int
0
1
2
3
4
5
6
7
8
9
10
11
12
13
14
15
16
17
18
19
20
21
22
23
24
25
26
27
28
29
30
31
32
33
34
35
36
37
38
39
40
41
42
43
44
45
46
47
48
49
50
51
52
53
54
55
56
57
58
59
60
61
62
63
64
65
66
67
68
69
70
71
72
73
74
75
76
77
78
79
80
81
82
83
84
85
86
87
88
89
90
91
92
93
94
95
96
97
98
99
100
101
102
103
104
105
106
107
108
109
110
111
112
113
114
115
116
117
118
119
120
121
122
123
124
125
126
127
128
129
130
131
132
133
134
135
136
137
138
139
140
141
142
143
144
145
146
147
148
149
150
151
152
153
154
155
156
157
158
159
160
161
162
163
164
165
166
167
168
169
170
171
172
173
174
175
176
177
178
179
180
181
182
183
184
185
186
187
188
189
190
191
192
193
194
195
196
197
198
199
200
201
202
203
204
205
206
207
208
209
210
211
212
213
214
215
216
217
218
219
220
221
222
223
224
225
226
227
228
229
230
231
232
233
234
235
236
237
238
239
240
241
242
243
244
245
246
247
248
249
250
251
252
253
254
255
256
257
258
259
260
261
262
263
264
265
266
267
268
269
270
271
272
273
274
275
276
277
278
279
280
281
282
283
284
285
286
287
288
289
290
291
292
293
294
295
296
297
298
299
300
301
302
303
304
305
306
307
308
309
310
311
312
313
314
315
316
317
318
319
320
321
322
323
324
325
326
327
328
329
330
331
332
333
334
335
336
337
338
339
340
341
342

Component_(#) 1 343 int
0
0
0
0
0
0
0
0
0
0
0
0
0
0
0
0
0
0
0
0
0
0
0
0
0
0
0
0
0
0
0
0
0
0
0
0
0
0
0
0
0
0
0
0
0
0
0
0
0
0
0
0
0
0
0
0
0
0
0
0
0
0
0
0
0
0
0
0
0
0
0
0
0
0
0
0
0
0
0
0
0
0
0
0
0
0
0
0
0
0
0
0
0
0
0
0
0
0
0
0
0
0
0
0
0
0
0
0
0
0
0
0
0
0
0
0
0
0
0
0
0
0
0
0
0
0
0
0
0
0
0
0
0
0
0
0
0
0
0
0
0
0
0
0
0
0
0
0
0
0
0
0
0
0
0
0
0
0
0
0
0
0
0
0
0
0
0
0
0
0
0
0
0
0
0
0
0
0
0
0
0
0
0
0
0
0
0
0
0
0
0
0
0
0
0
0
0
0
0
0
0
0
0
0
0
0
0
0
0
0
0
0
0
0
0
0
0
0
0
0
0
0
0
0
0
0
0
0
0
0
0
0
0
0
0
0
0
0
0
0
0
0
0
0
0
0
0
0
0
0
0
0
0
0
0
0
0
0
0
0
0
0
0
0
0
0
0
0
0
0
0
0
0
0
0
0
0
0
0
0
0
0
0
0
0
0
0
0
0
0
0
0
0
0
0
0
0
0
0
0
0
0
0
0
0
0
0
0
0
0
0
0
0
0
0
0
0
0
0
0
0
0
0
0
0
0
0
0
0
0
0
0
0
0
0
0
0
0
0
0
0
0
0

NodalMass_(kg) 1 343 double
3.15563e-06
1.41304e-05
2.20912e-06
1.71484e-05
8.42e-06
9.09306e-06
1.01179e-05
7.52198e-06
6.81096e-06
5.58223e-06
3.10888e-06
1.07575e-05
4.87011e-06
1.64955e-05
3.0246e-06
8.05984e-06
6.703e-06
1.0877e-05
4.18978e-06
8.16106e-06
6.14143e-06
1.17902e-05
2.23114e-06
4.25176e-06
1.09915e-05
7.41467e-06
4.21871e-06
3.92484e-06
3.08766e-06
1.31268e-05
7.72627e-06
1.65404e-05
1.19037e-05
7.97564e-06
3.81683e-06
1.11001e-05
3.81317e-06
1.39137e-05
6.37414e-06
8.00975e-06
7.6712e-06
1.21135e-05
1.6399e-05
2.78633e-06
8.93599e-06
2.58087e-06
7.57362e-06
4.23241e-06
1.31286e-05
3.80168e-06
2.7746e-06
7.16776e-06
1.21307e-05
5.11765e-06
8.19728e-06
4.58094e-06
2.79503e-06
3.26126e-06
4.12443e-06
2.11915e-06
3.35177e-06
3.61669e-06
1.56838e-05
7.33679e-06
8.24695e-06
5.00369e-06
2.82625e-06
7.20276e-06
3.26815e-06
4.18751e-06
2.02785e-06
2.42152e-06
3.11835e-06
5.97459e-06
5.87101e-06
4.09374e-06
5.45463e-06
2.28825e-06
4.49759e-06
4.38192e-06
4.50892e-06
4.39234e-06
4.27273e-06
5.32031e-06
1.53201e-06
2.38869e-06
2.02885e-06
4.38798e-06
3.17972e-06
3.14298e-06
4.61567e-06
5.87645e-06
8.18088e-06
2.48341e-06
1.53815e-05
3.49683e-06
7.35227e-06
2.01314e-06
2.0408e-06
7.98183e-06
4.41293e-06
7.1389e-06
1.20123e-06
5.03343e-06
1.61257e-06
4.12601e-06
8.73748e-06
4.37849e-06
7.97173e-06
2.13557e-06
3.38137e-06
9.48623e-06
7.40262e-06
1.80226e-06
2.10222e-06
7.98889e-06
1.87983e-06
7.44814e-06
4.19782e-06
2.37156e-06
4.31705e-06
6.06441e-06
4.30905e-06
2.16843e-06
1.8986e-06
1.81294e-06
3.89762e-06
2.44299e-06
1.65628e-06
8.01374e-06
1.64513e-06
2.3931e-06
3.01363e-06
2.99431e-06
1.36541e-06
1.87293e-06
2.09622e-06
1.94762e-06
1.87618e-06
6.37913e-06
4.58628e-06
2.02767e-06
1.61999e-06
2.41284e-06
3.8865e-06
4.44973e-06
2.29839e-06
1.17349e-05
3.11811e-06
1.354e-06
3.45063e-06
1.81846e-06
2.9382e-06
1.37381e-06
2.41464e-06
2.10451e-06
2.63927e-06
2.14166e-06
1.7943e-06
3.19976e-06
1.36989e-06
2.43489e-06
2.08158e-06
1.3601e-06
2.17203e-06
1.89924e-06
3.16996e-06
2.6119e-06
2.37677e-06
1.60225e-06
1.90684e-06
5.49206e-06
1.87878e-06
3.14313e-06
2.97301e-06
1.18454e-06
1.89263e-06
2.04166e-06
2.73572e-06
2.42405e-06
3.23083e-06
3.19752e-06
3.2142e-06
1.94492e-06
1.61196e-06
1.86876e-06
3.22435e-06
2.1114e-06
2.96917e-06
6.15288e-06
2.3097e-06
2.39729e-06
2.38029e-06
2.64508e-06
1.66557e-06
1.82377e-06
2.06583e-06
5.73271e-06
2.08467e-06
2.18324e-06
2.43522e-06
3.1188e-06
3.17316e-06
2.05447e-06
1.9592e-06
3.05718e-06
6.44327e-06
2.08796e-06
2.72615e-06
2.15709e-06
1.86812e-06
2.0028e-06
2.10999e-06
2.88994e-06
2.3222e-06
2.3979e-06
1.97629e-06
6.4127e-06
2.16225e-06
3.29198e-06
2.10223e-06
2.66566e-06
1.94415e-06
2.91865e-06
2.58116e-06
2.11703e-06
2.09534e-06
1.91719e-06
7.06046e-06
2.25203e-06
2.06378e-06
6.28159e-06
2.12147e-06
2.90924e-06
2.12921e-06
6.4487e-06
1.41701e-06
2.0682e-06
6.58062e-06
2.52584e-06
2.39732e-06
7.42191e-07
2.22368e-06
7.06751e-07
7.00657e-07
8.93749e-07
2.53536e-06
2.26535e-06
1.33607e-06
7.84725e-07
2.32303e-06
6.06694e-07
6.68276e-07
6.84307e-07
2.51242e-06
2.31629e-06
7.8367e-07
6.80839e-07
6.22692e-06
6.7471e-07
6.65305e-07
7.01158e-07
1.8232e-06
1.90695e-06
6.86722e-07
7.04792e-07
1.86445e-06
2.28572e-06
6.8045e-07
7.16005e-07
1.82373e-06
6.01079e-07
2.02791e-06
7.4579e-07
5.74423e-07
1.80052e-06
1.454e-06
2.2702e-06
1.80636e-06
2.15356e-06
1.79089e-06
1.79456e-06
6.8231e-07
2.24737e-06
1.45239e-06
1.79556e-06
6.97875e-07
6.24265e-07
6.62717e-07
1.44627e-06
1.40138e-06
2.15258e-06
1.82851e-06
1.3994e-06
1.43932e-06
2.19226e-06
6.97732e-07
1.77726e-06
1.79162e-06
6.54258e-07
7.3397e-07
2.34895e-06
7.10392e-07
6.56982e-07
6.26314e-07
2.18926e-06
6.12493e-07
6.03901e-07
5.92831e-07
5.12031e-07
5.11667e-07
4.9467e-07
4.97016e-07
4.96269e-07
5.33079e-07
4.94191e-07
4.97855e-07
4.86862e-07
4.90626e-07
4.94649e-07
4.94954e-07
4.91922e-07
4.89615e-07
4.96354e-07
4.95189e-07
4.82188e-07
1.10854e-06
5.3299e-07
5.44763e-07
5.36655e-07
5.15417e-07
5.01772e-07
5.53774e-07
5.53774e-07
5.53774e-07
5.53774e-07
5.53774e-07
5.53774e-07
5.50785e-07
5.50785e-07
7.45291e-07
7.11668e-07
4.9897e-07

NodalForce_(N) 3 343 double
-1.2081e-07 1.50936e-08 -7.70301e-09
-8.43912e-07 2.19697e-07 -2.86329e-07
0.000338315 4.36699e-05 0.000580722
-3.2612e-07 2.78082e-07 -2.68861e-07
7.31124e-07 1.26242e-06 -1.35937e-06
9.25959e-07 1.18255e-06 -1.56174e-06
-1.60078e-07 2.841e-06 -3.78291e-06
-6.89439e-07 1.38998e-06 -1.85542e-06
1.16602e-06 1.67338e-06 -2.10798e-06
-7.40426e-08 6.27176e-07 -8.40171e-07
9.17132e-07 3.90105e-07 -4.37461e-07
2.6163e-06 1.80579e-06 -2.12582e-06
1.31475e-06 6.52959e-07 -6.39108e-07
1.1577e-06 2.59364e-07 -3.44797e-07
7.78088e-07 3.27087e-07 -4.52237e-07
2.32027e-07 1.80005e-06 -2.57513e-06
-4.28222e-07 1.2737e-06 -1.75973e-06
3.10838e-07 2.27876e-07 -2.97462e-07
0.000768052 0.000653751 0.000294317
-4.92698e-08 4.87322e-08 -7.3319e-08
-3.2749e-07 1.52313e-06 -1.85354e-06
1.33601e-06 3.84567e-06 -4.5694e-06
0.00173655 -0.000426088 0.000340014
-4.40968e-07 5.20181e-07 -5.29969e-07
-4.77773e-07 1.69268e-06 -2.01074e-06
-7.76788e-07 5.85016e-07 -8.94735e-07
1.20736e-07 2.08961e-08 -4.62664e-08
6.09503e-08 4.84167e-07 -5.26077e-07
-5.40947e-07 6.93874e-08 -1.39682e-07
-1.11085e-06 9.16885e-08 -2.4259e-07
-1.38145e-06 4.63363e-07 -9.66152e-07
2.52953e-07 5.00363e-06 -7.05512e-06
2.1266e-06 3.64507e-06 -5.00469e-06
-2.11127e-07 2.63197e-06 -3.59256e-06
-1.1437e-06 1.7234e-06 -2.29031e-06
-1.81959e-06 3.00579e-06 -4.07137e-06
-1.32355e-06 1.34302e-06 -1.76228e-06
-5.27669e-06 4.14889e-06 -5.76003e-06
5.67242e-07 3.87731e-07 -4.91685e-07
1.31788e-06 7.46941e-07 -1.20687e-06
9.27892e-07 7.37079e-07 -6.48933e-07
1.78116e-07 1.45824e-06 -2.19209e-06
1.57147e-07 2.54623e-07 -3.08089e-07
-1.71364e-07 1.09935e-07 -1.22857e-07
-6.75374e-07 6.6722e-07 -7.97886e-07
0.00108348 3.15969e-05 -0.000351204
-2.13788e-07 8.69187e-08 -9.96325e-08
0.000336216 0.000611363 -0.000497169
4.1527e-07 2.19177e-07 -3.72932e-07
1.77463e-07 3.03241e-08 -2.80197e-08
4.64061e-07 6.83828e-07 -1.00884e-06
8.93063e-07 1.24423e-06 -1.93916e-06
-4.82861e-07 9.75542e-08 -2.39036e-07
-6.05586e-08 1.5347e-07 -2.5532e-07
-2.04832e-09 6.74785e-08 -1.07104e-07
6.19194e-07 2.09064e-06 -2.80622e-06
0.000851157 -0.000252484 4.42828e-05
-2.51739e-07 3.01621e-08 -3.12954e-08
0.00193213 -0.000592085 0.00066735
-3.35779e-08 9.54317e-07 -1.29661e-06
5.36559e-07 1.35605e-07 -2.31842e-07
3.3019e-07 1.82707e-06 -2.17485e-06
-1.16795e-06 5.51975e-06 -6.54313e-06
-1.7353e-07 2.58927e-06 -3.28187e-06
4.97934e-07 7.36303e-07 -6.40805e-07
-1.82278e-07 1.4746e-08 -4.973e-08
4.19565e-07 1.73335e-07 -1.27074e-07
1.4519e-06 1.32564e-06 -1.93603e-06
-7.1409e-07 1.46297e-06 -1.95932e-06
7.16058e-07 1.71184e-06 -1.94155e-06
-2.77056e-07 1.12765e-07 -1.60291e-07
4.61578e-07 1.21857e-07 -1.48731e-07
1.94473e-07 1.90569e-07 -1.43882e-07
5.83777e-07 5.93316e-07 -9.8291e-07
-9.87533e-08 2.605e-07 -3.20554e-07
0.00140303 -0.00028605 -0.000503648
-1.2287e-07 6.32759e-07 -8.11109e-07
-1.06521e-07 1.46141e-08 -1.76474e-08
5.05577e-07 7.81507e-07 -1.1462e-06
-1.60838e-07 8.12524e-07 -1.18788e-06
-1.11911e-07 4.26063e-07 -6.35332e-07
3.68359e-07 4.0716e-07 -5.66817e-07
-7.27868e-07 1.92302e-06 -2.58536e-06
-4.70626e-07 1.72382e-07 -2.99298e-07
0.00121683 0.000323619 0.000242624
-1.79822e-07 -2.39812e-09 -7.92888e-09
0.00121471 -0.000169372 -0.000261152
0.0017324 -0.000255817 -0.000499142
0.00103557 0.000809702 -0.000559433
-4.19323e-07 8.70345e-08 -1.35194e-07
2.03872e-07 2.65136e-08 -3.72022e-08
-1.1683e-08 6.95488e-07 -1.02022e-06
5.51936e-07 3.70647e-07 -8.07496e-07
9.30533e-07 6.66057e-07 -8.48037e-07
4.98102e-06 5.39917e-06 -6.4508e-06
3.1837e-07 1.02867e-06 -1.10718e-06
3.32772e-07 1.58557e-06 -1.73113e-06
-8.01788e-08 9.74296e-07 -1.21088e-06
0.0018017 0.000826714 -3.26452e-05
-6.10519e-07 1.58501e-06 -2.10045e-06
-5.77095e-07 9.41293e-07 -1.05799e-06
-1.004e-06 1.38258e-06 -1.838e-06
-1.16766e-07 6.7968e-08 -7.3629e-08
-1.17353e-06 1.78367e-06 -2.3378e-06
-1.16303e-07 7.98022e-08 -7.73746e-08
3.10283e-08 9.42321e-07 -1.06918e-06
-2.13156e-06 1.67523e-06 -2.22875e-06
1.23359e-06 1.78508e-06 -2.02279e-06
1.64078e-06 1.79742e-06 -1.97418e-06
1.23749e-07 7.33483e-09 -1.65197e-08
-1.459e-06 8.00239e-07 -1.17793e-06
-2.48497e-06 1.18933e-06 -1.77184e-06
-1.90395e-06 1.16072e-06 -1.8484e-06
0.000614531 0.000384246 -0.000495374
-3.03263e-08 1.06472e-06 -1.26392e-06
1.90574e-07 8.3561e-08 -1.36417e-07
-7.26368e-07 8.46023e-07 -1.13659e-06
-1.1415e-06 2.47482e-06 -3.31976e-06
-1.79084e-06 7.92884e-07 -1.07711e-06
7.82938e-07 7.09895e-07 -7.41164e-07
8.73916e-07 2.1802e-06 -2.59943e-06
6.94153e-07 2.13053e-06 -2.73578e-06
2.01918e-07 4.28162e-08 -4.57742e-08
0.00144981 0.000163241 0.000422364
1.06618e-07 2.41846e-08 -6.48304e-09
-1.62129e-07 8.12539e-07 -1.09531e-06
-1.71449e-06 6.38724e-07 -9.63462e-07
0.00167029 0.000454656 -0.000806845
5.63801e-08 1.5539e-08 -1.74299e-08
-1.32789e-06 6.75091e-07 -8.13542e-07
-1.99549e-07 5.90413e-07 -7.8819e-07
-1.50395e-07 1.07356e-06 -1.4674e-06
1.16353e-06 6.19098e-07 -7.48665e-07
9.36362e-07 7.87671e-07 -1.10356e-06
0.0012388 -0.000186875 0.000429916
-2.78579e-08 2.8617e-09 -1.39043e-08
0.00144347 -0.000315207 0.00042316
1.18766e-07 8.07615e-07 -9.12537e-07
-5.7488e-07 8.356e-07 -1.12892e-06
-1.87207e-06 2.13036e-06 -2.8985e-06
1.1424e-06 1.57863e-06 -2.18347e-06
9.07433e-07 6.60779e-07 -7.81072e-07
6.36774e-07 6.76533e-07 -7.50883e-07
7.66238e-07 1.2284e-06 -1.4582e-06
0.00103551 0.000567184 -0.000776356
1.71493e-06 1.04131e-06 -1.11178e-06
2.13838e-07 3.00785e-07 -2.55002e-07
-2.4572e-06 3.62297e-06 -4.75564e-06
-5.28565e-07 1.46373e-06 -1.86286e-06
-1.36508e-07 1.34533e-07 -1.5361e-07
-5.58941e-07 1.40305e-07 -1.57617e-07
1.96084e-08 7.68391e-09 -1.01752e-08
0.00227622 0.000692453 -5.42509e-06
4.03115e-08 6.26172e-07 -8.32039e-07
-9.0331e-07 6.03157e-07 -7.67238e-07
2.14107e-07 5.95746e-07 -8.35647e-07
0.00150688 7.85874e-05 -0.000678057
0.000947073 0.000840049 0.00181124
4.13459e-07 4.03181e-07 -6.12384e-07
6.19229e-07 1.53802e-06 -1.93775e-06
2.96838e-07 1.85086e-07 -1.4837e-07
-3.05151e-08 7.71214e-08 -1.12871e-07
-3.19175e-07 6.75589e-07 -7.85546e-07
2.37063e-07 2.10834e-07 -3.50536e-07
1.39291e-07 9.78359e-07 -1.33052e-06
3.06839e-07 6.65973e-07 -9.26879e-07
-7.01811e-07 8.15486e-07 -1.0498e-06
-5.30152e-07 9.75111e-08 -2.18698e-07
-1.22414e-06 6.41637e-07 -9.21001e-07
-7.91122e-07 4.56825e-07 -6.15444e-07
-6.99373e-07 2.92098e-07 -4.6777e-07
-1.17667e-06 1.24103e-06 -1.74047e-06
-1.39456e-08 6.35583e-07 -7.14637e-07
4.03607e-07 1.16949e-07 -2.31161e-07
5.27741e-07 2.34362e-07 -4.71156e-07
2.55927e-07 1.04905e-07 -1.8937e-07
-7.53878e-08 5.42985e-07 -7.50627e-07
3.33057e-07 1.16553e-07 -7.79712e-08
-5.2648e-07 1.25174e-06 -1.6364e-06
0.00184004 -9.93382e-05 0.000288682
7.91188e-07 1.51534e-06 -1.96864e-06
-9.88172e-07 1.15505e-06 -1.49077e-06
-4.86589e-07 1.57228e-06 -1.92e-06
0.00140503 -0.000211181 -0.000289888
9.79204e-08 6.08028e-08 -8.85671e-08
8.22333e-07 6.46349e-07 -7.00971e-07
1.34288e-06 1.21222e-06 -1.51389e-06
7.1277e-07 8.08063e-07 -1.06369e-06
-4.87156e-07 5.13227e-07 -6.08245e-07
-6.57086e-07 7.7597e-07 -1.01328e-06
-5.9014e-07 3.96759e-07 -4.62097e-07
-3.22186e-07 5.9674e-07 -7.62218e-07
2.45384e-07 6.1557e-08 -1.93409e-07
-5.44704e-07 2.08212e-07 -3.61573e-07
1.4974e-07 1.12308e-07 -7.57294e-08
2.4805e-07 1.41384e-07 -1.01758e-07
-5.29925e-07 9.74057e-07 -1.23696e-06
-1.22368e-06 3.66984e-07 -5.91932e-07
-1.30673e-07 9.73561e-07 -1.25626e-06
-7.63229e-07 4.56399e-07 -6.81532e-07
-1.11626e-06 8.64593e-07 -1.14352e-06
0.00156639 -0.000355353 -0.000116886
-1.3504e-07 1.6873e-08 -2.5878e-08
0.00134584 -0.000619849 6.05751e-05
-6.65032e-07 1.80423e-07 -2.77011e-07
-9.34689e-07 3.14851e-07 -4.01289e-07
-8.59236e-07 7.02509e-07 -1.09748e-06
-6.31466e-07 5.46199e-07 -7.43167e-07
3.83916e-07 5.79758e-07 -5.48786e-07
5.03316e-07 4.62605e-07 -4.28848e-07
-1.14966e-07 1.11312e-08 -5.6467e-09
-4.56834e-07 7.69687e-07 -9.42372e-07
2.8159e-07 9.79698e-07 -1.28203e-06
-7.4989e-07 7.45221e-07 -9.46386e-07
7.11449e-07 4.09329e-07 -5.80334e-07
3.39913e-08 1.04099e-07 -9.46845e-08
6.5718e-07 9.76953e-07 -1.20201e-06
-5.74301e-08 1.32246e-07 -2.14503e-07
-5.46176e-07 3.7132e-07 -5.4823e-07
-1.3145e-06 1.06956e-06 -1.49208e-06
-2.00017e-07 3.35957e-07 -4.34558e-07
1.35887e-07 1.24296e-06 -1.61353e-06
-6.31805e-07 3.08217e-07 -3.743e-07
6.16473e-07 8.86785e-07 -9.5309e-07
-3.24177e-07 1.03756e-07 -1.0648e-07
0.00163107 0.000282785 0.000757631
2.8016e-07 1.93054e-07 -3.49058e-07
5.67283e-07 3.88015e-07 -3.74537e-07
-3.84751e-07 3.55041e-07 -4.96429e-07
-3.88835e-07 2.3048e-07 -2.41384e-07
3.22584e-07 2.80392e-07 -2.12319e-07
1.04723e-07 3.21498e-07 -4.93575e-07
0.00204751 -0.00142769 9.15371e-05
0.00184877 0.000703558 -0.00116476
-6.06224e-07 2.13138e-07 -4.1356e-07
-8.58086e-07 6.94069e-07 -9.98907e-07
9.84612e-08 2.78776e-07 -2.81268e-07
-1.6842e-07 9.43846e-07 -1.24761e-06
-3.3175e-07 3.2708e-07 -4.71854e-07
6.02798e-07 3.88657e-07 -6.45325e-07
-7.46181e-07 1.09501e-06 -1.43519e-06
0.000863098 0.000726531 4.23613e-05
-1.09673e-06 7.59365e-07 -1.06246e-06
-3.27044e-08 7.56043e-08 -7.1508e-08
0.000908929 -3.51762e-05 -0.000974207
4.8112e-08 1.31797e-07 -1.88181e-07
0.00210898 -0.00112896 0.000140736
-9.43957e-07 1.00414e-06 -1.3611e-06
-6.16264e-07 6.01512e-07 -8.11338e-07
0.000771723 -0.00107797 0.00013659
-4.01019e-07 3.19754e-07 -4.32546e-07
0.00076015 0.00120164 -5.40252e-05
7.55374e-08 3.50034e-07 -4.02578e-07
-1.29997e-07 3.14317e-07 -4.15911e-07
-7.28313e-07 1.82664e-07 -3.5286e-07
1.67906e-07 1.11486e-06 -1.39908e-06
-5.32295e-08 1.47993e-07 -1.54386e-07
0.000649431 -0.000179535 0.00079529
1.93296e-07 3.95686e-07 -4.85906e-07
2.63047e-07 1.21969e-07 -1.30765e-07
2.23226e-07 3.47353e-07 -3.98671e-07
0.000401436 -0.000459662 0.00103251
-9.91978e-07 6.68532e-07 -9.01625e-07
-9.42172e-07 8.57035e-07 -1.15136e-06
1.54418e-07 3.57809e-07 -4.13592e-07
-2.61235e-07 3.25109e-07 -4.26874e-07
-4.55934e-08 2.56829e-08 -9.38668e-09
0.000984943 0.000569472 9.62088e-06
0.000647716 -0.000979652 0.000202922
0.000687789 -0.000986838 0.000131214
-1.01892e-06 6.50356e-07 -9.03156e-07
-2.49712e-07 2.74068e-07 -3.62236e-07
-4.77451e-07 2.08135e-07 -2.08865e-07
1.50429e-07 3.37427e-07 -4.62227e-07
0.00078865 0.000462054 0.000160438
0.000408841 0.000360501 -0.000518309
8.63354e-08 2.22935e-08 -1.08394e-08
1.24896e-07 1.81858e-08 -1.55992e-08
-7.32108e-08 6.79372e-07 -9.24771e-07
4.5759e-08 2.16669e-08 -1.90851e-08
0.00061958 -0.000178104 -0.00031158
2.00807e-08 8.16991e-07 -1.10924e-06
-3.71135e-07 1.55698e-07 -2.15443e-07
-2.08351e-07 1.15191e-06 -1.3475e-06
-4.39098e-09 8.19711e-09 -2.70984e-08
1.77221e-07 6.70826e-07 -9.13761e-07
2.03123e-07 3.25663e-07 -4.30324e-07
0.000369619 -0.0004456 0.000777922