# vtk DataFile Version 4.2
vtk output
ASCII
DATASET UNSTRUCTURED_GRID

POINTS 343 double
0.00161167 0.00421626 -2.06296e-05
0.003117 0.00502405 0.00213526
0 0.00419538 0.00112517
0.00277472 0.00199116 0.00190659
0.00744708 0.00251148 0.00493934
0.00744372 0.00393239 0.00630385
0.010975 0.0049295 0.00486303
0.00896133 0.004975 0.00358111
0.00984633 0.00342735 0.00679028
0.00717988 0.00509075 0.00490996
0.00602018 0.00120235 0.00992111
0.00760625 0.00218706 0.00780726
0.00603992 7.80108e-05 0.00824083
0.00289048 0.00204018 0.00799671
0.00616773 0.00261752 0.00991883
0.010005 0.00658467 0.00682072
0.00922643 0.00630969 0.00506826
0.00324951 0.00222774 0.00510484
0 0.00143586 0.00417514
0.00228978 0.00349619 0.00400773
0.00985238 0.00333358 0.00304108
0.0111648 0.00237443 0.00492566
0 0.00270918 0.00154168
0.0059973 0.00151391 -7.17485e-05
0.00721868 0.0022899 0.00210904
0.00570503 0.00360534 0.00153292
0.00193527 2.44058e-05 0.00403555
0.00603668 7.86153e-05 0.0016136
0.00377294 0.00700237 -4.60268e-05
0.00277799 0.00808954 0.00190888
0.00587795 0.00632767 0.00157252
0.0115061 0.00814318 0.00785043
0.0114655 0.00497701 0.00787601
0.0120682 0.00624876 0.00579663
0.0143703 0.00901931 0.0040177
0.0108965 0.00778561 0.0048285
0.0123137 0.0101498 0.00401564
0.0114758 0.00812974 0.0018773
0.00508581 0.00310502 0.00689563
0.00638306 0.00374846 0.00824184
0.00560588 0.0016787 0.00589871
0.00718918 0.00776491 0.00758503
0.00285087 0.00804546 0.00795349
0.00405182 0.0100502 0.00707547
0.00562147 0.00847435 0.00588646
0 0.00695361 0.00262895
0.00236169 0.00627048 0.00405759
0 0.0040177 0.00850214
0.00332179 0.0050292 0.00761946
0.00205553 0.00420083 0.00997389
0.0103146 0.00725866 0.00986432
0.0087971 0.00609089 0.00830446
0.00294154 0.00798035 0.00470405
0.00436899 0.00700142 0.00641273
0.00227614 0.00610833 0.00589687
0.014365 0.00598535 0.00812766
0 0.00718191 0.00711644
0.00227365 0.00580399 -2.88631e-05
0 0.00577432 0.00158701
0.0143664 0.00735618 0.00693078
0.00411994 0.00340366 0.00994557
0.0143642 0.00162375 0.00400037
0.0115908 0.00211158 0.00184009
0.0120851 0.00367492 0.00385029
0.00536734 0.00172296 0.00406058
0.00216015 0.0100277 0.00578715
0.00404844 5.25421e-05 0.00707711
0.00879278 0.00429296 0.00826299
0.0143666 0.00745035 0.00402051
0.012306 0.000157384 0.00401707
0.00481298 0.00293617 -5.79486e-05
0.00388323 0.00159115 0.00994892
0.00406383 5.2998e-05 0.00278072
0.00689853 0.00528762 0.0074661
0.00454334 0.00320765 0.00310939
0 0.00849157 0.00581511
0.0070042 0.00376644 0.00369863
0.00220907 0.00273781 -2.79558e-05
0.00832934 0.0084277 0.00988992
0.00859126 0.0101048 0.00839473
0.0060446 0.0100744 0.00823965
0.00576516 0.00857494 0.00992344
0.0143678 0.00866147 0.00563281
0.00452026 0.00689451 0.00309256
0 0.00748929 0.00137438
0.0019683 0.007515 -2.51487e-05
0 0.00287343 0.00335182
0 0.00580816 0.00831736
0 0.00429792 0.00253898
0.00364338 0.00434525 -4.4428e-05
0.00205504 0.00584567 0.00997379
0.00743883 0.00656961 0.006306
0.00517413 0.006578 0.00816722
0.0099855 0.00275446 0.00986892
0.0115304 0.00210574 0.0078875
0.0100192 0.000129133 0.00295956
0.00865184 0.00177619 0.00350614
0.0143647 0.00305745 0.00317861
0 0.00140616 0.00256446
0.00915886 0.00834103 0.00630501
0.00836472 0.00154433 -9.91218e-05
0.00867789 0.00366337 0.00149822
0.00452671 0.010056 0.00576673
0.0123044 0.0101499 0.00567757
0.00368026 0.00145416 -4.47503e-05
0.00858993 0.000111424 0.00139008
0.00902821 0.00839978 0.00350493
0.0122975 0.000157293 0.00567891
0.00891714 0.00178779 0.00625304
0.00201251 0.00258961 0.00997432
0.0102356 0.00730916 -0.000121941
0.00742577 0.00778335 0.0020768
0.00854397 0.0062014 0.00149803
0 0.00686719 0.00578184
0.0143673 0.00159473 0.00239429
0.00254422 0.00364303 0.00637548
0.0143719 0.0086565 0.00245142
0.0120919 0.00633951 0.00398405
0.00859687 0.0101055 0.00138834
0.0100146 0.000128842 0.00680043
0.0143631 0.00162292 0.00563829
0.0120682 0.00372598 0.00590882
0.00215969 2.72249e-05 0.00578795
0 0.0013659 0.00748679
0.00196004 2.47709e-05 0.00750451
0.0143655 0.00704286 0.00559899
0.00836316 0.00859582 -0.000100577
0 0.0075208 0.00859127
0.00195533 0.00751153 0.0099751
0.00607649 0.00828183 0.00355085
0.0123525 0.010149 0.00735317
0.0143699 0.00879947 0.00733862
0.00829138 0.0016934 0.00989111
0.01043 0.00431932 0.00986273
0 0.0057735 0.00666667
0.00196091 0.0100251 0.00750359
0 0.00863025 0.00752641
0.0123472 0.000159427 0.00235825
0.0143683 0.00713035 0.00245722
0.0121632 0.00649286 0.00201667
0.0122311 0.00597546 0.00984007
0.0107612 0.00151225 0.00985923
0.0123453 0.000158994 0.00735508
0.0143645 0.00155334 0.00730061
0 0.00143551 0.00581971
0.00858406 0.000110778 0.0083958
0.00604957 7.85418e-05 0.00332443
0.0114088 0.0048519 0.00189746
0.0143661 0.00447922 0.00236884
0.00606978 0.0100746 0.00658859
0.00406611 0.0100501 0.0027793
0.00188042 2.39745e-05 0.00239428
0 0.00727418 0.00419576
0.0143642 0.00595124 0.00648171
0.0100265 0.0101224 0.00295759
0.0107902 0.00876785 0.00985793
0 0.00574334 0.00336387
0 0.0043297 0.00416652
0.00986933 0.00590696 0.00987021
0.0143625 0.00320557 0.00673158
0.00606453 7.86042e-05 0.00659027
0.00355229 0.010044 0.00856543
0.0107651 0.00150566 -0.000126681
0.00829304 0.00676996 0.00989059
0.0143688 0.00769397 0.0083999
0.0123755 0.00770416 0.00983758
0.0099425 0.0031502 -0.000117279
0.00483052 0.00580588 -5.83499e-05
0.0108284 0.00876385 -0.000128373
0.0108103 0.0101316 0.00125658
0.0083136 0.00697159 -9.95431e-05
0.010027 0.00649666 0.00291015
0.0108033 0.00014048 0.00125771
0.00413585 0.00505093 0.00994552
0.00621512 0.00591154 0.00991783
0.00621381 0.00424479 0.00991802
0.0108056 0.0101302 0.008476
0.00354916 4.57647e-05 0.00856671
0.0143658 0.00592198 0.00319071
0 0.00302218 0.00691532
0.0143641 0.00419965 0.00831124
0.0122281 0.00417355 -0.000142926
0.0143689 0.00289375 0.00137653
0 0.00244495 0.00857025
0.00350583 0.00861408 0.00995381
0.0107981 0.000139665 0.00847744
0.0121988 0.0027786 0.00984041
0.0127212 0.00435399 0.00983298
0.00814825 0.0100997 0.00572971
0.00745068 0.0076768 0.00493833
0.00810962 0.0100991 0.00411279
0.0100217 0.0101222 0.00679899
0.00433491 0.00697036 0.00994279
0.00598582 0.00440722 -7.15568e-05
0.00406715 5.25883e-05 0.0043536
0.00452295 5.87664e-05 0.0057689
0.0143704 0.00437744 0.000961099
0.00522471 0.00840349 0.00152295
0.0143639 0.00451037 0.00399068
0.00958656 0.00589401 -0.00011422
0.0123545 0.0101499 0.00235682
0 0.00848692 0.00262374
0.00193547 0.0100251 0.00403472
0 0.00885053 0.00419359
0.00602721 0.00892592 -7.3075e-05
0.00604126 0.0100743 0.00161227
0.00718239 0.00488354 0.00229047
0.0103814 0.00465356 -0.000122557
0.00810269 0.000104736 0.00411528
0.00814175 0.000105276 0.00573168
0.00188027 0.0100241 0.00239332
0.0123254 0.00260396 -0.000144374
0.0143628 0.00470239 0.00703384
0.0102287 0.0101249 0.00487156
0.00824741 0.00346846 0.0098913
0.00352638 4.62385e-05 0.00131245
0.0143652 0.00263023 0.00837905
0.00343448 0.00483522 0.0049562
0.0083853 0.00443752 -9.94253e-05
0.011964 0.00595718 -0.000139923
0.00787235 0.0100963 0.00711933
0.0143624 0.00451069 0.00565219
0.00776595 0.0100952 0.00267862
0.0102217 0.000131429 0.00487319
0.00406957 0.0100503 0.00435155
0 0.00452174 0.00721958
0.0064908 0.00730101 0.00991405
0.00786584 0.000101704 0.00712045
0.00517214 0.00514038 0.00353063
0.00610629 0.0100748 0.00492993
0.00610093 7.93432e-05 0.00493246
0.00526807 0.00528397 0.00610802
0 0.005744 0.00499998
0 0.00433013 0.00583333
0.00718651 0.00583584 -8.58653e-05
0.00716155 0.00643006 0.00346396
0.00775928 0.000100474 0.00268051
0.0143642 0.00592131 0.00482087
0.00529741 0.00647582 0.00477662
0.00824918 0.00510337 0.00989121
0.0143701 0.00595207 0.00142113
0 0.00666667 0
0.0123597 0.00767268 -0.000144662
0.00478608 6.29611e-05 -5.75242e-05
0 0.01 0.00666667
0.00718302 0.0100871 0.00990529
0 0.00288419 0.00499914
0.0143727 0.00766381 0.00120869
0.0143763 0.00684225 -0.000163188
0 0.005 0.01
0.00718368 0.00297727 -8.54282e-05
0 0.005 0
0.0143706 0.000192048 0.00316111
0.0143769 0.0101645 0.00648081
0.00602923 0.00735066 -7.27057e-05
0.014363 0.00306839 0.00482078
0.00718459 9.4384e-05 -8.58649e-05
0 0 0.00666667
0.00545198 0.00368651 0.00515742
0.00717734 9.26574e-05 0.00990645
0.0143684 0.000191489 0.00648297
0 0 0.005
0.0126331 0.0101521 0.00107064
0.0143774 0.00894933 0.00105501
0.0143687 0.000191459 0.00482149
0.0143752 0.00518038 -0.000162037
0.0017478 0.00124256 -2.21214e-05
0 0.00122008 0.00122008
0 0.00333333 0.01
0 0.00666667 0.01
0.012633 0.00893304 -0.000147814
0.0143787 0.0101641 0.00315864
0.00605442 0.0100742 0.00332222
0.0143727 0.00684167 0.00980372
0 0.00333333 0
0 0.00122008 0.00877992
0.00174594 2.20908e-05 0.00875827
0.00174574 0.0012421 0.00997771
0.0126275 0.0101507 0.00861456
0.00174661 0.00880203 0.00997761
0 0.00877992 0.00877992
0.0143728 0.00894795 0.00858825
0.00959155 0.0101168 -0.000115635
0.0143718 0.00140997 0.00105503
0.00174706 0.0100221 0.0087576
0.0126264 0.00893089 0.00983337
0.0143713 0.00517889 0.00980431
0 0 0.00333333
0.00958389 0.000125375 -0.000113723
0.0126252 0.000164844 0.001071
0.00173549 2.23077e-05 0.00118979
0 0.00877992 0.00122008
0.00174699 0.00880267 -2.23891e-05
0.00173513 0.0100221 0.00118891
0.0143674 0.00140844 0.00858898
0.012621 0.00138336 0.00983444
0.00957571 0.000123761 0.0098751
0.0126276 0.00138522 -0.00014739
0.0126201 0.000163633 0.00861612
0.0143752 0.00351774 -0.000161756
0.00478431 0.0100582 0.00993671
0.00352787 0.0100437 0.00131135
0.00958332 0.0101155 0.00987407
0.0143701 0.00351566 0.00980414
0 0.01 0.005
0.00376596 0.0085349 -4.62264e-05
0.014377 0.0101642 0.00482108
0 0.01 0.00333333
0 0.00166667 0
0.0143742 0.000191926 0.00149995
0 0.00166667 0.01
0 0.00833333 0
0.0143805 0.00850512 -0.000163792
0.0143701 0.000191113 0.00814487
0.0143825 0.010166 0.0014998
0.0143784 0.0101647 0.00814319
0.00238841 0.0100292 0.00996902
0 0.01 0.00833333
0.0119938 0.0101443 -0.000141787
0.0119858 0.000157576 -0.000140979
0.0119788 0.000155686 0.00984371
0.0119864 0.0101425 0.00984246
0 0 0.00833333
0.0143761 0.00850205 0.00980467
0.00238933 3.15437e-05 -2.96979e-05
0 0 0.00166667
0.00478898 0.0100592 -5.86141e-05
0.0143711 0.00185451 0.00980539
0.0143766 0.00185662 -0.000162589
0.00238613 3.05979e-05 0.00996964
0.00238936 0.0100299 -3.02593e-05
0 0.01 0.00166667
0.0143816 0.0101664 0.00980608
0 0 0.01
0.0143874 0.010167 -0.000165067
0.0143737 0.00018994 0.00980799
0 0.01 0.01
0.0143797 0.000191663 -0.000164177
0 0.01 0
0 0 0
0.0071901 0.010088 -8.75001e-05
0.00478038 6.17071e-05 0.00993745
0 0.00833333 0.01

CELLS 343 686
1 0
1 1
1 2
1 3
1 4
1 5
1 6
1 7
1 8
1 9
1 10
1 11
1 12
1 13
1 14
1 15
1 16
1 17
1 18
1 19
1 20
1 21
1 22
1 23
1 24
1 25
1 26
1 27
1 28
1 29
1 30
1 31
1 32
1 33
1 34
1 35
1 36
1 37
1 38
1 39
1 40
1 41
1 42
1 43
1 44
1 45
1 46
1 47
1 48
1 49
1 50
1 51
1 52
1 53
1 54
1 55
1 56
1 57
1 58
1 59
1 60
1 61
1 62
1 63
1 64
1 65
1 66
1 67
1 68
1 69
1 70
1 71
1 72
1 73
1 74
1 75
1 76
1 77
1 78
1 79
1 80
1 81
1 82
1 83
1 84
1 85
1 86
1 87
1 88
1 89
1 90
1 91
1 92
1 93
1 94
1 95
1 96
1 97
1 98
1 99
1 100
1 101
1 102
1 103
1 104
1 105
1 106
1 107
1 108
1 109
1 110
1 111
1 112
1 113
1 114
1 115
1 116
1 117
1 118
1 119
1 120
1 121
1 122
1 123
1 124
1 125
1 126
1 127
1 128
1 129
1 130
1 131
1 132
1 133
1 134
1 135
1 136
1 137
1 138
1 139
1 140
1 141
1 142
1 143
1 144
1 145
1 146
1 147
1 148
1 149
1 150
1 151
1 152
1 153
1 154
1 155
1 156
1 157
1 158
1 159
1 160
1 161
1 162
1 163
1 164
1 165
1 166
1 167
1 168
1 169
1 170
1 171
1 172
1 173
1 174
1 175
1 176
1 177
1 178
1 179
1 180
1 181
1 182
1 183
1 184
1 185
1 186
1 187
1 188
1 189
1 190
1 191
1 192
1 193
1 194
1 195
1 196
1 197
1 198
1 199
1 200
1 201
1 202
1 203
1 204
1 205
1 206
1 207
1 208
1 209
1 210
1 211
1 212
1 213
1 214
1 215
1 216
1 217
1 218
1 219
1 220
1 221
1 222
1 223
1 224
1 225
1 226
1 227
1 228
1 229
1 230
1 231
1 232
1 233
1 234
1 235
1 236
1 237
1 238
1 239
1 240
1 241
1 242
1 243
1 244
1 245
1 246
1 247
1 248
1 249
1 250
1 251
1 252
1 253
1 254
1 255
1 256
1 257
1 258
1 259
1 260
1 261
1 262
1 263
1 264
1 265
1 266
1 267
1 268
1 269
1 270
1 271
1 272
1 273
1 274
1 275
1 276
1 277
1 278
1 279
1 280
1 281
1 282
1 283
1 284
1 285
1 286
1 287
1 288
1 289
1 290
1 291
1 292
1 293
1 294
1 295
1 296
1 297
1 298
1 299
1 300
1 301
1 302
1 303
1 304
1 305
1 306
1 307
1 308
1 309
1 310
1 311
1 312
1 313
1 314
1 315
1 316
1 317
1 318
1 319
1 320
1 321
1 322
1 323
1 324
1 325
1 326
1 327
1 328
1 329
1 330
1 331
1 332
1 333
1 334
1 335
1 336
1 337
1 338
1 339
1 340
1 341
1 342

CELL_TYPES 343
1
1
1
1
1
1
1
1
1
1
1
1
1
1
1
1
1
1
1
1
1
1
1
1
1
1
1
1
1
1
1
1
1
1
1
1
1
1
1
1
1
1
1
1
1
1
1
1
1
1
1
1
1
1
1
1
1
1
1
1
1
1
1
1
1
1
1
1
1
1
1
1
1
1
1
1
1
1
1
1
1
1
1
1
1
1
1
1
1
1
1
1
1
1
1
1
1
1
1
1
1
1
1
1
1
1
1
1
1
1
1
1
1
1
1
1
1
1
1
1
1
1
1
1
1
1
1
1
1
1
1
1
1
1
1
1
1
1
1
1
1
1
1
1
1
1
1
1
1
1
1
1
1
1
1
1
1
1
1
1
1
1
1
1
1
1
1
1
1
1
1
1
1
1
1
1
1
1
1
1
1
1
1
1
1
1
1
1
1
1
1
1
1
1
1
1
1
1
1
1
1
1
1
1
1
1
1
1
1
1
1
1
1
1
1
1
1
1
1
1
1
1
1
1
1
1
1
1
1
1
1
1
1
1
1
1
1
1
1
1
1
1
1
1
1
1
1
1
1
1
1
1
1
1
1
1
1
1
1
1
1
1
1
1
1
1
1
1
1
1
1
1
1
1
1
1
1
1
1
1
1
1
1
1
1
1
1
1
1
1
1
1
1
1
1
1
1
1
1
1
1
1
1
1
1
1
1
1
1
1
1
1
1
1
1
1
1
1
1
1
1
1
1
1
1
1
1
1
1
1
1
1
1
1
1
1
1
1
1
1
1
1
1

POINT_DATA 343
FIELD FieldData 8

NodeID_(#) 1 343 int
0
1
2
3
4
5
6
7
8
9
10
11
12
13
14
15
16
17
18
19
20
21
22
23
24
25
26
27
28
29
30
31
32
33
34
35
36
37
38
39
40
41
42
43
44
45
46
47
48
49
50
51
52
53
54
55
56
57
58
59
60
61
62
63
64
65
66
67
68
69
70
71
72
73
74
75
76
77
78
79
80
81
82
83
84
85
86
87
88
89
90
91
92
93
94
95
96
97
98
99
100
101
102
103
104
105
106
107
108
109
110
111
112
113
114
115
116
117
118
119
120
121
122
123
124
125
126
127
128
129
130
131
132
133
134
135
136
137
138
139
140
141
142
143
144
145
146
147
148
149
150
151
152
153
154
155
156
157
158
159
160
161
162
163
164
165
166
167
168
169
170
171
172
173
174
175
176
177
178
179
180
181
182
183
184
185
186
187
188
189
190
191
192
193
194
195
196
197
198
199
200
201
202
203
204
205
206
207
208
209
210
211
212
213
214
215
216
217
218
219
220
221
222
223
224
225
226
227
228
229
230
231
232
233
234
235
236
237
238
239
240
241
242
243
244
245
246
247
248
249
250
251
252
253
254
255
256
257
258
259
260
261
262
263
264
265
266
267
268
269
270
271
272
273
274
275
276
277
278
279
280
281
282
283
284
285
286
287
288
289
290
291
292
293
294
295
296
297
298
299
300
301
302
303
304
305
306
307
308
309
310
311
312
313
314
315
316
317
318
319
320
321
322
323
324
325
326
327
328
329
330
331
332
333
334
335
336
337
338
339
340
341
342

Component_(#) 1 343 int
0
0
0
0
0
0
0
0
0
0
0
0
0
0
0
0
0
0
0
0
0
0
0
0
0
0
0
0
0
0
0
0
0
0
0
0
0
0
0
0
0
0
0
0
0
0
0
0
0
0
0
0
0
0
0
0
0
0
0
0
0
0
0
0
0
0
0
0
0
0
0
0
0
0
0
0
0
0
0
0
0
0
0
0
0
0
0
0
0
0
0
0
0
0
0
0
0
0
0
0
0
0
0
0
0
0
0
0
0
0
0
0
0
0
0
0
0
0
0
0
0
0
0
0
0
0
0
0
0
0
0
0
0
0
0
0
0
0
0
0
0
0
0
0
0
0
0
0
0
0
0
0
0
0
0
0
0
0
0
0
0
0
0
0
0
0
0
0
0
0
0
0
0
0
0
0
0
0
0
0
0
0
0
0
0
0
0
0
0
0
0
0
0
0
0
0
0
0
0
0
0
0
0
0
0
0
0
0
0
0
0
0
0
0
0
0
0
0
0
0
0
0
0
0
0
0
0
0
0
0
0
0
0
0
0
0
0
0
0
0
0
0
0
0
0
0
0
0
0
0
0
0
0
0
0
0
0
0
0
0
0
0
0
0
0
0
0
0
0
0
0
0
0
0
0
0
0
0
0
0
0
0
0
0
0
0
0
0
0
0
0
0
0
0
0
0
0
0
0
0
0
0
0
0
0
0
0
0
0
0
0
0
0
0
0
0
0
0
0
0
0
0
0
0
0
0
0
0
0
0
0
0
0
0
0
0
0
0
0
0
0
0
0

NodalMass_(kg) 1 343 double
3.15563e-06
1.41304e-05
2.20912e-06
1.71484e-05
8.42e-06
9.09306e-06
1.01179e-05
7.52198e-06
6.81096e-06
5.58223e-06
3.10888e-06
1.07575e-05
4.87011e-06
1.64955e-05
3.0246e-06
8.05984e-06
6.703e-06
1.0877e-05
4.18978e-06
8.16106e-06
6.14143e-06
1.17902e-05
2.23114e-06
4.25176e-06
1.09915e-05
7.41467e-06
4.21871e-06
3.92484e-06
3.08766e-06
1.31268e-05
7.72627e-06
1.65404e-05
1.19037e-05
7.97564e-06
3.81683e-06
1.11001e-05
3.81317e-06
1.39137e-05
6.37414e-06
8.00975e-06
7.6712e-06
1.21135e-05
1.6399e-05
2.78633e-06
8.93599e-06
2.58087e-06
7.57362e-06
4.23241e-06
1.31286e-05
3.80168e-06
2.7746e-06
7.16776e-06
1.21307e-05
5.11765e-06
8.19728e-06
4.58094e-06
2.79503e-06
3.26126e-06
4.12443e-06
2.11915e-06
3.35177e-06
3.61669e-06
1.56838e-05
7.33679e-06
8.24695e-06
5.00369e-06
2.82625e-06
7.20276e-06
3.26815e-06
4.18751e-06
2.02785e-06
2.42152e-06
3.11835e-06
5.97459e-06
5.87101e-06
4.09374e-06
5.45463e-06
2.28825e-06
4.49759e-06
4.38192e-06
4.50892e-06
4.39234e-06
4.27273e-06
5.32031e-06
1.53201e-06
2.38869e-06
2.02885e-06
4.38798e-06
3.17972e-06
3.14298e-06
4.61567e-06
5.87645e-06
8.18088e-06
2.48341e-06
1.53815e-05
3.49683e-06
7.35227e-06
2.01314e-06
2.0408e-06
7.98183e-06
4.41293e-06
7.1389e-06
1.20123e-06
5.03343e-06
1.61257e-06
4.12601e-06
8.73748e-06
4.37849e-06
7.97173e-06
2.13557e-06
3.38137e-06
9.48623e-06
7.40262e-06
1.80226e-06
2.10222e-06
7.98889e-06
1.87983e-06
7.44814e-06
4.19782e-06
2.37156e-06
4.31705e-06
6.06441e-06
4.30905e-06
2.16843e-06
1.8986e-06
1.81294e-06
3.89762e-06
2.44299e-06
1.65628e-06
8.01374e-06
1.64513e-06
2.3931e-06
3.01363e-06
2.99431e-06
1.36541e-06
1.87293e-06
2.09622e-06
1.94762e-06
1.87618e-06
6.37913e-06
4.58628e-06
2.02767e-06
1.61999e-06
2.41284e-06
3.8865e-06
4.44973e-06
2.29839e-06
1.17349e-05
3.11811e-06
1.354e-06
3.45063e-06
1.81846e-06
2.9382e-06
1.37381e-06
2.41464e-06
2.10451e-06
2.63927e-06
2.14166e-06
1.7943e-06
3.19976e-06
1.36989e-06
2.43489e-06
2.08158e-06
1.3601e-06
2.17203e-06
1.89924e-06
3.16996e-06
2.6119e-06
2.37677e-06
1.60225e-06
1.90684e-06
5.49206e-06
1.87878e-06
3.14313e-06
2.97301e-06
1.18454e-06
1.89263e-06
2.04166e-06
2.73572e-06
2.42405e-06
3.23083e-06
3.19752e-06
3.2142e-06
1.94492e-06
1.61196e-06
1.86876e-06
3.22435e-06
2.1114e-06
2.96917e-06
6.15288e-06
2.3097e-06
2.39729e-06
2.38029e-06
2.64508e-06
1.66557e-06
1.82377e-06
2.06583e-06
5.73271e-06
2.08467e-06
2.18324e-06
2.43522e-06
3.1188e-06
3.17316e-06
2.05447e-06
1.9592e-06
3.05718e-06
6.44327e-06
2.08796e-06
2.72615e-06
2.15709e-06
1.86812e-06
2.0028e-06
2.10999e-06
2.88994e-06
2.3222e-06
2.3979e-06
1.97629e-06
6.4127e-06
2.16225e-06
3.29198e-06
2.10223e-06
2.66566e-06
1.94415e-06
2.91865e-06
2.58116e-06
2.11703e-06
2.09534e-06
1.91719e-06
7.06046e-06
2.25203e-06
2.06378e-06
6.28159e-06
2.12147e-06
2.90924e-06
2.12921e-06
6.4487e-06
1.41701e-06
2.0682e-06
6.58062e-06
2.52584e-06
2.39732e-06
7.42191e-07
2.22368e-06
7.06751e-07
7.00657e-07
8.93749e-07
2.53536e-06
2.26535e-06
1.33607e-06
7.84725e-07
2.32303e-06
6.06694e-07
6.68276e-07
6.84307e-07
2.51242e-06
2.31629e-06
7.8367e-07
6.80839e-07
6.22692e-06
6.7471e-07
6.65305e-07
7.01158e-07
1.8232e-06
1.90695e-06
6.86722e-07
7.04792e-07
1.86445e-06
2.28572e-06
6.8045e-07
7.16005e-07
1.82373e-06
6.01079e-07
2.02791e-06
7.4579e-07
5.74423e-07
1.80052e-06
1.454e-06
2.2702e-06
1.80636e-06
2.15356e-06
1.79089e-06
1.79456e-06
6.8231e-07
2.24737e-06
1.45239e-06
1.79556e-06
6.97875e-07
6.24265e-07
6.62717e-07
1.44627e-06
1.40138e-06
2.15258e-06
1.82851e-06
1.3994e-06
1.43932e-06
2.19226e-06
6.97732e-07
1.77726e-06
1.79162e-06
6.54258e-07
7.3397e-07
2.34895e-06
7.10392e-07
6.56982e-07
6.26314e-07
2.18926e-06
6.12493e-07
6.03901e-07
5.92831e-07
5.12031e-07
5.11667e-07
4.9467e-07
4.97016e-07
4.96269e-07
5.33079e-07
4.94191e-07
4.97855e-07
4.86862e-07
4.90626e-07
4.94649e-07
4.94954e-07
4.91922e-07
4.89615e-07
4.96354e-07
4.95189e-07
4.82188e-07
1.10854e-06
5.3299e-07
5.44763e-07
5.36655e-07
5.15417e-07
5.01772e-07
5.53774e-07
5.53774e-07
5.53774e-07
5.53774e-07
5.53774e-07
5.53774e-07
5.50785e-07
5.50785e-07
7.45291e-07
7.11668e-07
4.9897e-07

NodalForce_(N) 3 343 double
-2.54352e-08 -7.5444e-09 -1.73602e-09
-9.57017e-08 -9.10458e-08 -4.1114e-08
0.000287679 1.71958e-05 0.000571134
-3.0504e-07 -9.25563e-08 -2.67165e-08
-2.42128e-07 -4.05524e-07 -2.48153e-07
3.55226e-08 -3.91652e-07 -3.17271e-07
8.32977e-09 -9.50013e-07 -7.70797e-07
-1.08255e-07 -4.81418e-07 -3.52214e-07
3.07302e-08 -5.2776e-07 -4.43905e-07
2.12204e-08 -2.20095e-07 -1.58094e-07
2.41653e-08 -1.08312e-07 -1.07497e-07
-1.79811e-08 -5.3266e-07 -4.73302e-07
-9.50626e-08 -1.72615e-07 -1.55436e-07
-3.93424e-08 -6.94486e-08 -4.34058e-08
6.66423e-08 -9.56078e-08 -1.08825e-07
4.32291e-07 -6.0519e-07 -5.603e-07
1.62345e-07 -4.39495e-07 -3.57863e-07
-1.23436e-07 -8.23784e-08 -5.42571e-08
0.000822862 0.000617452 0.000332945
-5.09526e-08 -2.42677e-08 -1.99249e-08
-2.91862e-07 -4.93125e-07 -3.51798e-07
-4.47322e-07 -1.18793e-06 -9.22758e-07
0.00176295 -0.000350267 0.000374607
-3.06554e-07 -1.64197e-07 -1.07591e-07
-6.4041e-07 -5.28112e-07 -3.35641e-07
-2.61125e-07 -1.94908e-07 -1.55588e-07
-6.32746e-08 -9.82989e-09 -6.18447e-09
-2.84373e-07 -1.59269e-07 -8.23051e-08
-4.33116e-08 -3.51056e-08 -3.02061e-08
6.56544e-08 -6.75973e-08 -3.26591e-08
-8.53692e-08 -1.97794e-07 -1.75084e-07
1.6024e-06 -1.59992e-06 -1.58159e-06
5.45954e-07 -1.18279e-06 -1.10897e-06
2.86783e-07 -8.76321e-07 -7.67124e-07
2.0294e-07 -5.61224e-07 -4.90414e-07
5.14708e-07 -9.97059e-07 -8.52601e-07
2.76535e-07 -4.30619e-07 -3.78886e-07
1.3262e-07 -1.41617e-06 -1.17454e-06
-1.30964e-08 -1.3123e-07 -1.01219e-07
1.42603e-07 -2.45435e-07 -2.66879e-07
-1.80925e-07 -2.24467e-07 -1.15868e-07
7.45896e-07 -4.70842e-07 -4.91928e-07
3.45027e-07 -6.76226e-08 -8.89015e-08
1.2507e-07 -3.71866e-08 -3.27358e-08
3.57873e-07 -2.26076e-07 -1.70662e-07
0.00103156 -2.24425e-05 -0.000338342
1.85463e-08 -3.02355e-08 -1.54253e-08
0.000386577 0.00056213 -0.000475282
1.50525e-07 -9.14255e-08 -7.99088e-08
3.67954e-08 -1.175e-08 -9.60919e-09
2.83694e-07 -2.15464e-07 -2.41288e-07
4.23475e-07 -4.09353e-07 -4.40877e-07
1.39524e-07 -6.48525e-08 -4.85971e-08
1.00793e-07 -6.29263e-08 -5.85689e-08
5.22441e-08 -2.92453e-08 -2.19053e-08
2.97908e-07 -6.67507e-07 -6.28555e-07
0.000797383 -0.000270633 1.53525e-05
-2.57418e-08 -1.41803e-08 -8.83935e-09
0.00192581 -0.000599695 0.000682025
1.48338e-07 -3.08608e-07 -2.85637e-07
8.46554e-08 -4.2484e-08 -5.47786e-08
-2.42037e-07 -5.55458e-07 -4.48477e-07
-1.38062e-06 -1.72365e-06 -1.25309e-06
-2.53487e-07 -8.34099e-07 -6.63212e-07
-2.77248e-07 -2.33727e-07 -9.68291e-08
8.93224e-08 -2.05177e-09 -1.45135e-08
-7.61192e-08 -4.61945e-08 -2.27759e-08
2.38616e-07 -4.23961e-07 -4.36113e-07
8.97306e-08 -4.82892e-07 -4.15241e-07
-3.66495e-07 -5.13567e-07 -3.84983e-07
-9.33299e-08 -4.14696e-08 -3.32785e-08
2.66873e-08 -3.13304e-08 -3.57185e-08
-1.33762e-07 -6.15999e-08 -2.29856e-08
1.7046e-07 -2.06471e-07 -2.13818e-07
-1.07416e-07 -9.11657e-08 -5.12469e-08
0.00131641 -0.00031823 -0.000509192
-1.29641e-07 -2.16703e-07 -1.41274e-07
-3.734e-08 -4.52464e-09 -5.71565e-09
4.70879e-07 -2.35183e-07 -2.84846e-07
4.87106e-07 -2.49509e-07 -2.69823e-07
3.498e-07 -1.38965e-07 -1.46009e-07
3.3215e-07 -1.18367e-07 -1.54455e-07
3.07742e-07 -6.2258e-07 -5.63391e-07
2.78402e-08 -7.97089e-08 -4.67306e-08
0.00120013 0.000364923 0.000212449
-3.18647e-09 -4.43961e-09 -3.59341e-09
0.00120949 -0.000129892 -0.000288246
0.00183374 -0.000238263 -0.000500491
0.00105336 0.000783284 -0.000559263
-7.98207e-08 -3.30253e-08 -2.8147e-08
6.95762e-08 -1.08969e-08 -1.28471e-08
2.12225e-07 -2.44105e-07 -2.15005e-07
3.02225e-07 -1.32099e-07 -1.9141e-07
8.03841e-08 -1.96095e-07 -1.97509e-07
5.41866e-09 -1.60591e-06 -1.42082e-06
-3.30768e-07 -3.13067e-07 -2.01024e-07
-4.32982e-07 -4.9124e-07 -3.05137e-07
-1.13738e-07 -3.05754e-07 -2.48506e-07
0.00179401 0.000805212 -4.7161e-05
5.38551e-07 -5.15726e-07 -4.5683e-07
-4.41095e-07 -2.92486e-07 -2.06418e-07
-4.02915e-07 -4.53036e-07 -3.41033e-07
5.06092e-08 -2.04715e-08 -1.42195e-08
4.91681e-07 -5.57264e-07 -5.11036e-07
-7.21657e-08 -2.61436e-08 -1.56552e-08
-4.26226e-07 -2.89997e-07 -1.85507e-07
2.83792e-07 -5.69845e-07 -4.38884e-07
-2.72265e-07 -5.30372e-07 -4.17831e-07
-1.9401e-07 -5.41827e-07 -4.06537e-07
7.96825e-09 -3.12736e-09 -4.62275e-09
-8.74714e-08 -2.85633e-07 -2.48369e-07
7.08979e-08 -4.34588e-07 -3.39606e-07
-1.52366e-07 -4.28836e-07 -3.60241e-07
0.000679765 0.000393658 -0.000439808
-1.92795e-07 -3.26002e-07 -2.55794e-07
-2.20956e-09 -3.03327e-08 -2.19947e-08
4.48233e-08 -2.79465e-07 -2.40318e-07
7.66504e-08 -8.32779e-07 -6.83858e-07
1.25401e-07 -2.60477e-07 -2.23919e-07
-1.00598e-07 -2.04607e-07 -1.57391e-07
-1.81291e-07 -6.55974e-07 -5.49283e-07
-1.75844e-08 -6.81942e-07 -5.75959e-07
-5.15092e-08 -1.20291e-08 -7.4927e-09
0.00145466 0.000173608 0.000401469
-1.41362e-08 -3.46864e-09 -1.37569e-09
8.14775e-08 -2.66478e-07 -2.3762e-07
-2.64506e-08 -2.33092e-07 -2.05363e-07
0.00167534 0.000476245 -0.000772847
2.9715e-08 -4.66027e-10 -6.55559e-09
1.91811e-07 -2.48733e-07 -1.50792e-07
2.01664e-07 -1.82966e-07 -1.76119e-07
2.39476e-07 -3.4558e-07 -3.2886e-07
4.96016e-08 -1.81144e-07 -1.77718e-07
1.7159e-07 -2.4552e-07 -2.57182e-07
0.00116016 -0.00015463 0.000423511
3.49824e-08 -3.06279e-09 -2.00643e-09
0.00145269 -0.000340518 0.000410942
-2.18933e-07 -2.44139e-07 -1.74194e-07
-2.42776e-09 -2.82145e-07 -2.36275e-07
-1.03144e-07 -7.35177e-07 -5.88279e-07
4.13193e-07 -4.99405e-07 -5.07407e-07
3.27065e-08 -1.92043e-07 -1.82287e-07
-6.16874e-08 -1.96767e-07 -1.65404e-07
-4.52964e-08 -3.62731e-07 -3.17258e-07
0.00108103 0.000549706 -0.000765082
-9.55069e-08 -2.90293e-07 -2.57299e-07
-1.4157e-07 -9.20466e-08 -3.93043e-08
-5.08105e-07 -1.2067e-06 -9.37847e-07
-1.4288e-07 -4.69977e-07 -3.84804e-07
8.99936e-08 -4.3195e-08 -3.54029e-08
9.63315e-08 -4.31004e-08 -3.06478e-08
-3.02084e-08 -6.06778e-09 1.37646e-09
0.00231389 0.000732323 -1.95545e-05
5.54521e-08 -2.02069e-07 -1.81679e-07
1.24932e-07 -1.94262e-07 -1.57615e-07
2.66129e-07 -1.8054e-07 -1.99066e-07
0.00149583 0.000125987 -0.000685324
0.000975029 0.000826714 0.00178099
1.43438e-07 -1.28096e-07 -1.4364e-07
-1.44826e-09 -4.78949e-07 -4.19697e-07
-4.83792e-08 -5.10132e-08 -2.98136e-08
1.17253e-07 -2.78145e-08 -2.75695e-08
-2.4271e-07 -2.09308e-07 -1.56033e-07
1.10736e-07 -6.90269e-08 -8.58405e-08
2.1155e-07 -3.12957e-07 -3.02752e-07
2.25878e-07 -2.07148e-07 -2.16866e-07
-2.81125e-07 -2.66606e-07 -2.07639e-07
-6.62723e-08 -4.43234e-08 -4.4128e-08
-1.48532e-08 -2.23584e-07 -1.96275e-07
4.94128e-08 -1.50749e-07 -1.28871e-07
-5.17033e-08 -1.08517e-07 -9.89936e-08
-4.91406e-09 -4.35332e-07 -3.39197e-07
-2.25143e-07 -1.93476e-07 -1.32428e-07
1.07435e-07 -2.75446e-08 -5.71754e-08
1.6259e-07 -7.39617e-08 -1.17549e-07
4.53752e-08 -3.11457e-08 -4.60189e-08
2.46528e-07 -1.67992e-07 -1.70422e-07
-2.78181e-08 -2.61059e-08 -1.82951e-08
-2.76112e-08 -4.0988e-07 -3.40899e-07
0.00182011 -9.76811e-05 0.000287922
1.24427e-07 -4.75307e-07 -4.39632e-07
-2.70838e-07 -3.79771e-07 -3.05037e-07
-2.77398e-07 -4.94697e-07 -3.90342e-07
0.00139666 -0.000184038 -0.000318964
7.55068e-08 -1.54052e-08 -2.57011e-08
-3.92753e-08 -1.8233e-07 -1.60717e-07
1.22561e-07 -3.62724e-07 -3.50308e-07
1.3474e-07 -2.51382e-07 -2.45784e-07
2.27717e-07 -1.59323e-07 -1.30103e-07
2.1845e-07 -2.71047e-07 -2.01942e-07
1.33127e-07 -1.25708e-07 -9.39416e-08
2.48325e-07 -1.86289e-07 -1.70549e-07
1.08858e-07 -2.4571e-08 -5.23174e-08
-1.17937e-07 -7.48787e-08 -7.05737e-08
-5.88268e-08 -3.22074e-08 -8.22458e-09
-6.3353e-08 -3.93388e-08 -1.38408e-08
-1.41066e-07 -3.15579e-07 -2.54345e-07
4.41345e-08 -1.42646e-07 -1.10027e-07
-4.28691e-08 -3.12622e-07 -2.61383e-07
-1.01573e-07 -1.65673e-07 -1.39674e-07
1.17694e-07 -2.80711e-07 -2.41508e-07
0.00152426 -0.000313486 -0.000104794
3.81801e-08 -1.4288e-09 -7.57032e-09
0.00133914 -0.000640375 3.04941e-05
-1.68734e-09 -6.73787e-08 -5.87856e-08
8.13444e-08 -9.98416e-08 -8.10138e-08
-1.60168e-07 -2.57199e-07 -2.0103e-07
-1.42313e-07 -1.85098e-07 -1.49854e-07
-1.87238e-07 -1.72781e-07 -9.1404e-08
-1.05867e-07 -1.34613e-07 -8.43793e-08
1.67299e-08 -8.52545e-10 -1.96388e-09
-2.20266e-07 -2.44929e-07 -1.90851e-07
5.93791e-08 -3.11699e-07 -2.80672e-07
2.27685e-07 -2.36035e-07 -2.01893e-07
9.00168e-08 -1.21252e-07 -1.37711e-07
-1.07604e-07 -4.06361e-08 -1.07319e-08
2.7578e-08 -2.94609e-07 -2.6644e-07
4.83819e-09 -5.51689e-08 -3.59979e-08
-1.3291e-07 -1.26983e-07 -1.07892e-07
-1.7891e-07 -3.78503e-07 -3.12775e-07
1.87191e-07 -1.04172e-07 -9.68213e-08
1.17923e-08 -3.97046e-07 -3.44663e-07
8.02992e-08 -1.00174e-07 -7.67653e-08
-2.01716e-07 -2.64817e-07 -1.85205e-07
8.58098e-08 -3.21609e-08 -2.05878e-08
0.00166331 0.000293405 0.00073154
1.51854e-07 -6.17363e-08 -8.92852e-08
-6.4537e-08 -1.10408e-07 -8.21342e-08
-3.42854e-08 -1.38049e-07 -8.23091e-08
1.21305e-07 -7.1938e-08 -4.84365e-08
-1.03814e-07 -8.08883e-08 -3.10889e-08
6.5052e-08 -1.22236e-07 -9.58831e-08
0.00200876 -0.00140659 8.32564e-05
0.00189322 0.00071105 -0.00116887
-7.92932e-08 -8.83496e-08 -8.34256e-08
3.29066e-08 -2.52646e-07 -1.7693e-07
-1.15397e-07 -8.55632e-08 -4.74582e-08
3.08971e-08 -3.07497e-07 -2.65097e-07
7.83255e-08 -1.31251e-07 -8.74498e-08
1.50432e-07 -1.22312e-07 -1.5471e-07
-8.63227e-08 -3.64041e-07 -2.98181e-07
0.000828646 0.000728719 1.57829e-05
-6.13514e-08 -2.62832e-07 -2.26981e-07
-5.00372e-08 -1.98114e-08 -1.13437e-08
0.000885941 -9.17959e-06 -0.000978382
9.77823e-08 -3.64003e-08 -4.61912e-08
0.00205007 -0.00114689 0.000149619
-2.52185e-08 -3.42445e-07 -2.85517e-07
-5.89971e-08 -2.03521e-07 -1.73128e-07
0.000779597 -0.00106515 0.00012387
-1.64493e-07 -1.07938e-07 -8.57211e-08
0.000757064 0.0012042 -5.45591e-05
-6.79433e-08 -1.0393e-07 -8.12574e-08
7.43246e-08 -9.79509e-08 -9.24871e-08
-4.1295e-08 -7.53527e-08 -7.37926e-08
-7.28697e-08 -3.49384e-07 -2.93373e-07
-8.04164e-08 -4.2398e-08 -2.77843e-08
0.000675373 -0.000159535 0.000798268
-5.07206e-08 -1.38979e-07 -8.64192e-08
-3.46232e-09 -3.59829e-08 -3.43387e-08
-3.46427e-08 -1.0211e-07 -8.53464e-08
0.000427299 -0.000432854 0.00103132
5.46046e-08 -2.21706e-07 -1.91954e-07
1.51064e-08 -2.87031e-07 -2.44147e-07
-5.27567e-08 -1.06028e-07 -8.5684e-08
-4.99951e-08 -1.09165e-07 -8.99939e-08
-2.88693e-08 -6.61119e-09 -3.39307e-09
0.000986328 0.000527438 4.09145e-05
0.000667227 -0.000992597 0.000184972
0.000706391 -0.000980811 0.000110961
-1.27053e-08 -2.25234e-07 -1.95187e-07
3.53318e-08 -8.85013e-08 -7.77497e-08
8.35494e-08 -6.5197e-08 -4.13129e-08
7.71161e-08 -1.07172e-07 -1.06282e-07
0.000773488 0.000479163 0.000144608
0.000412767 0.00034754 -0.000524957
-7.35559e-09 -4.03481e-09 -5.3441e-09
1.80427e-09 -5.51224e-09 -2.9921e-09
2.54629e-07 -2.07864e-07 -2.09301e-07
3.84483e-08 -3.35502e-09 -7.70842e-09