# vtk DataFile Version 4.2
vtk output
ASCII
DATASET UNSTRUCTURED_GRID

POINTS 343 double
0.00160869 0.00421613 -2.0541e-05
0.00311147 0.0050238 0.00213534
0 0.00419538 0.00112517
0.0027698 0.00199092 0.00190668
0.00743272 0.00251009 0.00493864
0.00743014 0.00393143 0.00630348
0.0109515 0.00492791 0.00486086
0.00894263 0.00497387 0.00357928
0.00982679 0.00342565 0.00678943
0.00716646 0.00509002 0.00490928
0.00600988 0.00120121 0.00992123
0.00759252 0.00218564 0.00780704
0.00602909 7.65961e-05 0.00824074
0.00288609 0.00203993 0.00799678
0.00615737 0.00261658 0.00991893
0.00998535 0.00658385 0.00681986
0.00920792 0.00630888 0.00506689
0.00324411 0.0022274 0.00510488
0 0.00143586 0.00417514
0.00228597 0.00349598 0.00400782
0.00983064 0.0033317 0.00303859
0.0111405 0.00237191 0.00492345
0 0.00270918 0.00154168
0.00598353 0.00151264 -7.30884e-05
0.00720327 0.00228852 0.00210749
0.00569321 0.00360465 0.00153188
0.00193198 2.41639e-05 0.00403563
0.00602351 7.69899e-05 0.00161254
0.00376487 0.00700202 -4.64822e-05
0.00277304 0.00808926 0.00190894
0.00586587 0.00632716 0.00157141
0.0114827 0.00814272 0.00784953
0.0114421 0.00497548 0.00787518
0.0120418 0.00624752 0.00579441
0.0143346 0.00901873 0.00401344
0.0108732 0.00778504 0.00482628
0.0122851 0.0101501 0.0040123
0.0114487 0.0081292 0.00187328
0.0050772 0.00310445 0.00689553
0.00637216 0.0037477 0.00824177
0.00559592 0.00167767 0.0058986
0.00717649 0.00776447 0.00758477
0.00284665 0.0080452 0.00795354
0.0040451 0.01005 0.00707543
0.00561164 0.00847402 0.00588623
0 0.00695361 0.00262895
0.00235776 0.0062703 0.00405765
0 0.0040177 0.00850214
0.00331669 0.00502893 0.00761949
0.00205257 0.00420068 0.009974
0.0102949 0.00725808 0.00986427
0.00878093 0.00609014 0.00830418
0.00293671 0.00798005 0.0047041
0.00436179 0.00700101 0.0064126
0.00227256 0.00610814 0.00589694
0.0143319 0.00598359 0.00812594
0 0.00718191 0.00711644
0.00226929 0.0058038 -2.88464e-05
0 0.00577432 0.00158701
0.0143326 0.00735507 0.00692843
0.00411359 0.00340326 0.00994582
0.0143282 0.00161975 0.00399615
0.0115632 0.00210869 0.00183609
0.0120574 0.00367264 0.00384703
0.00535738 0.00172197 0.00406039
0.00215678 0.0100276 0.00578722
0.00404137 5.17181e-05 0.0070771
0.00877655 0.00429182 0.00826267
0.014331 0.00744946 0.00401631
0.0122771 0.000153216 0.00401386
0.00480235 0.00293552 -5.87982e-05
0.00387717 0.00159061 0.00994915
0.00405596 5.20341e-05 0.00278067
0.00688649 0.00528692 0.00746593
0.00453507 0.00320717 0.0031093
0 0.00849157 0.00581511
0.00699047 0.00376548 0.00369774
0.00220489 0.00273767 -2.79324e-05
0.00831442 0.00842734 0.00989014
0.00857511 0.0101047 0.00839452
0.00603415 0.0100742 0.00823957
0.00575566 0.0085746 0.0099237
0.0143332 0.0086608 0.00562963
0.00451206 0.00689408 0.00309244
0 0.00748929 0.00137438
0.00196459 0.00751479 -2.50664e-05
0 0.00287343 0.00335182
0 0.00580816 0.00831736
0 0.00429792 0.00253898
0.00363568 0.00434493 -4.48576e-05
0.00205215 0.00584548 0.00997392
0.00742528 0.006569 0.00630553
0.00516572 0.00657757 0.00816725
0.00996636 0.00275247 0.00986878
0.0115065 0.00210304 0.00788663
0.00999633 0.000126022 0.00295696
0.00863343 0.0017742 0.00350443
0.0143283 0.00305414 0.00317385
0 0.00140616 0.00256446
0.00914098 0.00834058 0.00630415
0.00834459 0.00154227 -0.000101788
0.00865837 0.00366189 0.00149568
0.00451884 0.0100558 0.00576665
0.0122769 0.0101502 0.0056752
0.00367223 0.00145353 -4.52183e-05
0.00856993 0.000108789 0.00138764
0.00900908 0.00839932 0.00350302
0.0122696 0.000153181 0.00567674
0.0088996 0.0017858 0.0062523
0.00200959 0.00258946 0.00997444
0.0102107 0.00730846 -0.00012592
0.00741006 0.00778284 0.0020751
0.00852499 0.00620063 0.00149551
0 0.00686719 0.00578184
0.0143301 0.00159063 0.00238914
0.00254024 0.00364283 0.00637554
0.0143351 0.00865581 0.00244618
0.0120644 0.00633821 0.00398088
0.00857719 0.0101055 0.00138567
0.00999394 0.000125775 0.00679967
0.0143281 0.00161902 0.0056353
0.0120417 0.0037237 0.00590678
0.00215613 2.6979e-05 0.00578804
0 0.0013659 0.00748679
0.00195695 2.45621e-05 0.00750459
0.014331 0.00704171 0.00559571
0.00834331 0.00859538 -0.000103547
0 0.0075208 0.00859127
0.0019526 0.00751137 0.0099752
0.00606492 0.00828145 0.0035503
0.0123258 0.0101493 0.00735176
0.0143362 0.00879889 0.00733649
0.00827636 0.00169163 0.00989121
0.01041 0.00431776 0.00986257
0 0.0057735 0.00666667
0.001958 0.010025 0.00750366
0 0.00863025 0.00752641
0.012317 0.000155179 0.00235418
0.0143316 0.00712929 0.00245204
0.0121341 0.00649167 0.00201235
0.0122063 0.00597415 0.00983975
0.0107398 0.0015097 0.00985902
0.0123182 0.000154922 0.00735375
0.0143304 0.00154943 0.00729857
0 0.00143551 0.00581971
0.00856769 0.000108363 0.00839561
0.00603728 7.68963e-05 0.00332378
0.0113819 0.00485022 0.00189352
0.0143293 0.00447655 0.00236349
0.00605895 0.0100745 0.00658842
0.00405849 0.01005 0.00277916
0.00187708 2.3693e-05 0.00239444
0 0.00727418 0.00419576
0.0143302 0.00594933 0.00647911
0.0100038 0.0101225 0.00295486
0.0107692 0.00876749 0.00985779
0 0.00574334 0.00336387
0 0.0043297 0.00416652
0.0098508 0.00590596 0.00987019
0.0143283 0.00320232 0.00672922
0.00605337 7.70591e-05 0.00659023
0.00354674 0.0100438 0.00856554
0.0107382 0.00150278 -0.000130802
0.00827831 0.00676929 0.00989069
0.0143357 0.00769293 0.00839833
0.0123502 0.00770345 0.00983726
0.00991827 0.0031481 -0.000120907
0.00481995 0.00580545 -5.92348e-05
0.0108016 0.00876345 -0.00013278
0.0107843 0.0101317 0.00125266
0.00829408 0.00697092 -0.000102441
0.0100049 0.00649582 0.00290747
0.010777 0.000136936 0.001254
0.00412949 0.00505062 0.00994572
0.00620493 0.00591094 0.00991801
0.00620352 0.00424411 0.00991814
0.0107839 0.0101302 0.00847547
0.00354329 4.50891e-05 0.00856682
0.0143297 0.00591989 0.0031859
0 0.00302218 0.00691532
0.0143309 0.00419688 0.00830963
0.0121969 0.00417123 -0.000148198
0.0143312 0.00289034 0.00137069
0 0.00244495 0.00857025
0.00350051 0.00861385 0.00995401
0.0107759 0.000136378 0.00847692
0.0121737 0.00277595 0.00984006
0.0126946 0.00435181 0.00983257
0.00813244 0.0100996 0.00572904
0.00743651 0.00767629 0.0049376
0.00809306 0.0100991 0.00411151
0.0100014 0.0101222 0.00679815
0.00432816 0.00696993 0.009943
0.0059724 0.00440656 -7.30585e-05
0.00405963 5.17248e-05 0.00435359
0.00451478 5.77558e-05 0.00576892
0.0143324 0.00437468 0.000955002
0.005214 0.00840312 0.00152207
0.0143283 0.0045078 0.00398655
0.00956353 0.00589293 -0.000117778
0.0123247 0.0101502 0.00235261
0 0.00848692 0.00262374
0.0019323 0.010025 0.00403479
0 0.00885053 0.00419359
0.0060135 0.00892557 -7.47056e-05
0.00602847 0.0100742 0.00161107
0.00716755 0.00488273 0.00228898
0.0103561 0.00465196 -0.000126547
0.00808574 0.000102393 0.00411404
0.0081256 0.000102959 0.00573106
0.001877 0.010024 0.00239345
0.0122938 0.00260099 -0.000149651
0.0143289 0.00469992 0.00703166
0.0102066 0.0101251 0.00486967
0.00823276 0.00346725 0.00989132
0.00351917 4.53471e-05 0.0013123
0.0143318 0.00262677 0.0083775
0.00342873 0.00483493 0.00495618
0.00836552 0.00443627 -0.000102265
0.0119338 0.00595581 -0.000145039
0.00785763 0.0100962 0.00711889
0.0143278 0.00450814 0.00564908
0.0077494 0.0100951 0.00267698
0.0101994 0.000128201 0.00487133
0.00406231 0.0100502 0.00435148
0 0.00452174 0.00721958
0.00647998 0.00730057 0.00991429
0.00785084 9.95355e-05 0.00712017
0.00516276 0.0051399 0.00353039
0.00609493 0.0100747 0.00492952
0.00608922 7.76712e-05 0.0049322
0.00525913 0.00528349 0.00610783
0 0.005744 0.00499998
0 0.00433013 0.00583333
0.00717002 0.0058351 -8.80809e-05
0.00714743 0.00642946 0.00346292
0.00774233 9.82205e-05 0.00267898
0.0143292 0.00591919 0.00481723
0.00528811 0.00647535 0.0047764
0.00823462 0.00510246 0.00989123
0.0143327 0.00595003 0.00141519
0 0.00666667 0
0.0123281 0.00767184 -0.000150097
0.00477509 6.1622e-05 -5.82681e-05
0 0.01 0.00666667
0.00717038 0.0100871 0.00990539
0 0.00288419 0.00499914
0.0143351 0.00766293 0.00120255
0.0143376 0.00684073 -0.000169848
0 0.005 0.01
0.00716699 0.00297595 -8.74995e-05
0 0.005 0
0.0143334 0.000186628 0.00315639
0.0143424 0.010165 0.00647824
0.00601565 0.00735018 -7.43284e-05
0.0143278 0.00306497 0.00481716
0.00716731 9.20721e-05 -8.76563e-05
0 0 0.00666667
0.00544244 0.00368591 0.00515723
0.00716431 9.06569e-05 0.0099064
0.0143334 0.00018619 0.00648056
0 0 0.005
0.0126013 0.0101524 0.00106549
0.0143394 0.00894881 0.0010488
0.0143327 0.000186105 0.00481796
0.0143363 0.00517796 -0.00016874
0.00174452 0.00124241 -2.20747e-05
0 0.00122008 0.00122008
0 0.00333333 0.01
0 0.00666667 0.01
0.0126002 0.00893267 -0.00015347
0.014342 0.0101645 0.00315391
0.00604254 0.0100741 0.00332158
0.0143402 0.00684028 0.00980309
0 0.00333333 0
0 0.00122008 0.00877992
0.00174323 2.18734e-05 0.0087583
0.00174318 0.00124194 0.00997783
0.0126005 0.0101509 0.00861366
0.00174416 0.0088019 0.00997771
0 0.00877992 0.00877992
0.0143398 0.00894749 0.00858679
0.00956802 0.0101169 -0.000119229
0.0143336 0.00140565 0.00104908
0.00174451 0.010022 0.00875764
0.0126002 0.00893061 0.00983303
0.0143388 0.00517671 0.00980366
0 0 0.00333333
0.00956007 0.000122099 -0.000116879
0.012593 0.000160415 0.00106608
0.00173226 2.20096e-05 0.00118984
0 0.00877992 0.00122008
0.00174369 0.00880247 -2.23346e-05
0.00173195 0.010022 0.00118891
0.0143339 0.00140441 0.00858759
0.0125943 0.00137999 0.00983402
0.00955722 0.000120793 0.00987485
0.0125947 0.00138148 -0.000152815
0.0125926 0.000159489 0.00861528
0.0143362 0.00351455 -0.000168415
0.00477661 0.0100582 0.00993684
0.00352086 0.0100436 0.00131111
0.00956514 0.0101157 0.00987393
0.0143374 0.00351252 0.00980344
0 0.01 0.005
0.00375784 0.00853457 -4.67116e-05
0.0143414 0.0101647 0.00481727
0 0.01 0.00333333
0 0.00166667 0
0.0143358 0.000186529 0.00149428
0 0.00166667 0.01
0 0.00833333 0
0.0143416 0.00850447 -0.000170672
0.0143359 0.000185968 0.00814328
0.0143447 0.0101664 0.00149387
0.0143448 0.0101651 0.0081415
0.00238488 0.0100292 0.00996908
0 0.01 0.00833333
0.011963 0.0101447 -0.00014689
0.0119547 0.00015323 -0.00014574
0.0119537 0.000151776 0.00984322
0.0119618 0.0101427 0.00984209
0 0 0.00833333
0.0143435 0.00850137 0.009804
0.00238442 3.0948e-05 -2.97433e-05
0 0 0.00166667
0.00477823 0.010059 -5.95792e-05
0.0143382 0.00185076 0.00980467
0.0143374 0.00185252 -0.000169156
0.00238236 3.01751e-05 0.00996975
0.00238454 0.0100298 -3.03905e-05
0 0.01 0.00166667
0.0143489 0.0101668 0.00980529
0 0 0.01
0.0143483 0.0101673 -0.000171877
0.0143405 0.000184892 0.00980716
0 0.01 0.01
0.0143403 0.000186186 -0.000170563
0 0.01 0
0 0 0
0.00717314 0.010088 -8.97232e-05
0.00477236 6.06156e-05 0.00993759
0 0.00833333 0.01

CELLS 343 686
1 0
1 1
1 2
1 3
1 4
1 5
1 6
1 7
1 8
1 9
1 10
1 11
1 12
1 13
1 14
1 15
1 16
1 17
1 18
1 19
1 20
1 21
1 22
1 23
1 24
1 25
1 26
1 27
1 28
1 29
1 30
1 31
1 32
1 33
1 34
1 35
1 36
1 37
1 38
1 39
1 40
1 41
1 42
1 43
1 44
1 45
1 46
1 47
1 48
1 49
1 50
1 51
1 52
1 53
1 54
1 55
1 56
1 57
1 58
1 59
1 60
1 61
1 62
1 63
1 64
1 65
1 66
1 67
1 68
1 69
1 70
1 71
1 72
1 73
1 74
1 75
1 76
1 77
1 78
1 79
1 80
1 81
1 82
1 83
1 84
1 85
1 86
1 87
1 88
1 89
1 90
1 91
1 92
1 93
1 94
1 95
1 96
1 97
1 98
1 99
1 100
1 101
1 102
1 103
1 104
1 105
1 106
1 107
1 108
1 109
1 110
1 111
1 112
1 113
1 114
1 115
1 116
1 117
1 118
1 119
1 120
1 121
1 122
1 123
1 124
1 125
1 126
1 127
1 128
1 129
1 130
1 131
1 132
1 133
1 134
1 135
1 136
1 137
1 138
1 139
1 140
1 141
1 142
1 143
1 144
1 145
1 146
1 147
1 148
1 149
1 150
1 151
1 152
1 153
1 154
1 155
1 156
1 157
1 158
1 159
1 160
1 161
1 162
1 163
1 164
1 165
1 166
1 167
1 168
1 169
1 170
1 171
1 172
1 173
1 174
1 175
1 176
1 177
1 178
1 179
1 180
1 181
1 182
1 183
1 184
1 185
1 186
1 187
1 188
1 189
1 190
1 191
1 192
1 193
1 194
1 195
1 196
1 197
1 198
1 199
1 200
1 201
1 202
1 203
1 204
1 205
1 206
1 207
1 208
1 209
1 210
1 211
1 212
1 213
1 214
1 215
1 216
1 217
1 218
1 219
1 220
1 221
1 222
1 223
1 224
1 225
1 226
1 227
1 228
1 229
1 230
1 231
1 232
1 233
1 234
1 235
1 236
1 237
1 238
1 239
1 240
1 241
1 242
1 243
1 244
1 245
1 246
1 247
1 248
1 249
1 250
1 251
1 252
1 253
1 254
1 255
1 256
1 257
1 258
1 259
1 260
1 261
1 262
1 263
1 264
1 265
1 266
1 267
1 268
1 269
1 270
1 271
1 272
1 273
1 274
1 275
1 276
1 277
1 278
1 279
1 280
1 281
1 282
1 283
1 284
1 285
1 286
1 287
1 288
1 289
1 290
1 291
1 292
1 293
1 294
1 295
1 296
1 297
1 298
1 299
1 300
1 301
1 302
1 303
1 304
1 305
1 306
1 307
1 308
1 309
1 310
1 311
1 312
1 313
1 314
1 315
1 316
1 317
1 318
1 319
1 320
1 321
1 322
1 323
1 324
1 325
1 326
1 327
1 328
1 329
1 330
1 331
1 332
1 333
1 334
1 335
1 336
1 337
1 338
1 339
1 340
1 341
1 342

CELL_TYPES 343
1
1
1
1
1
1
1
1
1
1
1
1
1
1
1
1
1
1
1
1
1
1
1
1
1
1
1
1
1
1
1
1
1
1
1
1
1
1
1
1
1
1
1
1
1
1
1
1
1
1
1
1
1
1
1
1
1
1
1
1
1
1
1
1
1
1
1
1
1
1
1
1
1
1
1
1
1
1
1
1
1
1
1
1
1
1
1
1
1
1
1
1
1
1
1
1
1
1
1
1
1
1
1
1
1
1
1
1
1
1
1
1
1
1
1
1
1
1
1
1
1
1
1
1
1
1
1
1
1
1
1
1
1
1
1
1
1
1
1
1
1
1
1
1
1
1
1
1
1
1
1
1
1
1
1
1
1
1
1
1
1
1
1
1
1
1
1
1
1
1
1
1
1
1
1
1
1
1
1
1
1
1
1
1
1
1
1
1
1
1
1
1
1
1
1
1
1
1
1
1
1
1
1
1
1
1
1
1
1
1
1
1
1
1
1
1
1
1
1
1
1
1
1
1
1
1
1
1
1
1
1
1
1
1
1
1
1
1
1
1
1
1
1
1
1
1
1
1
1
1
1
1
1
1
1
1
1
1
1
1
1
1
1
1
1
1
1
1
1
1
1
1
1
1
1
1
1
1
1
1
1
1
1
1
1
1
1
1
1
1
1
1
1
1
1
1
1
1
1
1
1
1
1
1
1
1
1
1
1
1
1
1
1
1
1
1
1
1
1
1
1
1
1
1
1
1
1
1
1
1
1
1
1
1
1
1
1
1
1
1
1
1
1

POINT_DATA 343
FIELD FieldData 8

NodeID_(#) 1 343 int
0
1
2
3
4
5
6
7
8
9
10
11
12
13
14
15
16
17
18
19
20
21
22
23
24
25
26
27
28
29
30
31
32
33
34
35
36
37
38
39
40
41
42
43
44
45
46
47
48
49
50
51
52
53
54
55
56
57
58
59
60
61
62
63
64
65
66
67
68
69
70
71
72
73
74
75
76
77
78
79
80
81
82
83
84
85
86
87
88
89
90
91
92
93
94
95
96
97
98
99
100
101
102
103
104
105
106
107
108
109
110
111
112
113
114
115
116
117
118
119
120
121
122
123
124
125
126
127
128
129
130
131
132
133
134
135
136
137
138
139
140
141
142
143
144
145
146
147
148
149
150
151
152
153
154
155
156
157
158
159
160
161
162
163
164
165
166
167
168
169
170
171
172
173
174
175
176
177
178
179
180
181
182
183
184
185
186
187
188
189
190
191
192
193
194
195
196
197
198
199
200
201
202
203
204
205
206
207
208
209
210
211
212
213
214
215
216
217
218
219
220
221
222
223
224
225
226
227
228
229
230
231
232
233
234
235
236
237
238
239
240
241
242
243
244
245
246
247
248
249
250
251
252
253
254
255
256
257
258
259
260
261
262
263
264
265
266
267
268
269
270
271
272
273
274
275
276
277
278
279
280
281
282
283
284
285
286
287
288
289
290
291
292
293
294
295
296
297
298
299
300
301
302
303
304
305
306
307
308
309
310
311
312
313
314
315
316
317
318
319
320
321
322
323
324
325
326
327
328
329
330
331
332
333
334
335
336
337
338
339
340
341
342

Component_(#) 1 343 int
0
0
0
0
0
0
0
0
0
0
0
0
0
0
0
0
0
0
0
0
0
0
0
0
0
0
0
0
0
0
0
0
0
0
0
0
0
0
0
0
0
0
0
0
0
0
0
0
0
0
0
0
0
0
0
0
0
0
0
0
0
0
0
0
0
0
0
0
0
0
0
0
0
0
0
0
0
0
0
0
0
0
0
0
0
0
0
0
0
0
0
0
0
0
0
0
0
0
0
0
0
0
0
0
0
0
0
0
0
0
0
0
0
0
0
0
0
0
0
0
0
0
0
0
0
0
0
0
0
0
0
0
0
0
0
0
0
0
0
0
0
0
0
0
0
0
0
0
0
0
0
0
0
0
0
0
0
0
0
0
0
0
0
0
0
0
0
0
0
0
0
0
0
0
0
0
0
0
0
0
0
0
0
0
0
0
0
0
0
0
0
0
0
0
0
0
0
0
0
0
0
0
0
0
0
0
0
0
0
0
0
0
0
0
0
0
0
0
0
0
0
0
0
0
0
0
0
0
0
0
0
0
0
0
0
0
0
0
0
0
0
0
0
0
0
0
0
0
0
0
0
0
0
0
0
0
0
0
0
0
0
0
0
0
0
0
0
0
0
0
0
0
0
0
0
0
0
0
0
0
0
0
0
0
0
0
0
0
0
0
0
0
0
0
0
0
0
0
0
0
0
0
0
0
0
0
0
0
0
0
0
0
0
0
0
0
0
0
0
0
0
0
0
0
0
0
0
0
0
0
0
0
0
0
0
0
0
0
0
0
0
0
0

NodalMass_(kg) 1 343 double
3.15563e-06
1.41304e-05
2.20912e-06
1.71484e-05
8.42e-06
9.09306e-06
1.01179e-05
7.52198e-06
6.81096e-06
5.58223e-06
3.10888e-06
1.07575e-05
4.87011e-06
1.64955e-05
3.0246e-06
8.05984e-06
6.703e-06
1.0877e-05
4.18978e-06
8.16106e-06
6.14143e-06
1.17902e-05
2.23114e-06
4.25176e-06
1.09915e-05
7.41467e-06
4.21871e-06
3.92484e-06
3.08766e-06
1.31268e-05
7.72627e-06
1.65404e-05
1.19037e-05
7.97564e-06
3.81683e-06
1.11001e-05
3.81317e-06
1.39137e-05
6.37414e-06
8.00975e-06
7.6712e-06
1.21135e-05
1.6399e-05
2.78633e-06
8.93599e-06
2.58087e-06
7.57362e-06
4.23241e-06
1.31286e-05
3.80168e-06
2.7746e-06
7.16776e-06
1.21307e-05
5.11765e-06
8.19728e-06
4.58094e-06
2.79503e-06
3.26126e-06
4.12443e-06
2.11915e-06
3.35177e-06
3.61669e-06
1.56838e-05
7.33679e-06
8.24695e-06
5.00369e-06
2.82625e-06
7.20276e-06
3.26815e-06
4.18751e-06
2.02785e-06
2.42152e-06
3.11835e-06
5.97459e-06
5.87101e-06
4.09374e-06
5.45463e-06
2.28825e-06
4.49759e-06
4.38192e-06
4.50892e-06
4.39234e-06
4.27273e-06
5.32031e-06
1.53201e-06
2.38869e-06
2.02885e-06
4.38798e-06
3.17972e-06
3.14298e-06
4.61567e-06
5.87645e-06
8.18088e-06
2.48341e-06
1.53815e-05
3.49683e-06
7.35227e-06
2.01314e-06
2.0408e-06
7.98183e-06
4.41293e-06
7.1389e-06
1.20123e-06
5.03343e-06
1.61257e-06
4.12601e-06
8.73748e-06
4.37849e-06
7.97173e-06
2.13557e-06
3.38137e-06
9.48623e-06
7.40262e-06
1.80226e-06
2.10222e-06
7.98889e-06
1.87983e-06
7.44814e-06
4.19782e-06
2.37156e-06
4.31705e-06
6.06441e-06
4.30905e-06
2.16843e-06
1.8986e-06
1.81294e-06
3.89762e-06
2.44299e-06
1.65628e-06
8.01374e-06
1.64513e-06
2.3931e-06
3.01363e-06
2.99431e-06
1.36541e-06
1.87293e-06
2.09622e-06
1.94762e-06
1.87618e-06
6.37913e-06
4.58628e-06
2.02767e-06
1.61999e-06
2.41284e-06
3.8865e-06
4.44973e-06
2.29839e-06
1.17349e-05
3.11811e-06
1.354e-06
3.45063e-06
1.81846e-06
2.9382e-06
1.37381e-06
2.41464e-06
2.10451e-06
2.63927e-06
2.14166e-06
1.7943e-06
3.19976e-06
1.36989e-06
2.43489e-06
2.08158e-06
1.3601e-06
2.17203e-06
1.89924e-06
3.16996e-06
2.6119e-06
2.37677e-06
1.60225e-06
1.90684e-06
5.49206e-06
1.87878e-06
3.14313e-06
2.97301e-06
1.18454e-06
1.89263e-06
2.04166e-06
2.73572e-06
2.42405e-06
3.23083e-06
3.19752e-06
3.2142e-06
1.94492e-06
1.61196e-06
1.86876e-06
3.22435e-06
2.1114e-06
2.96917e-06
6.15288e-06
2.3097e-06
2.39729e-06
2.38029e-06
2.64508e-06
1.66557e-06
1.82377e-06
2.06583e-06
5.73271e-06
2.08467e-06
2.18324e-06
2.43522e-06
3.1188e-06
3.17316e-06
2.05447e-06
1.9592e-06
3.05718e-06
6.44327e-06
2.08796e-06
2.72615e-06
2.15709e-06
1.86812e-06
2.0028e-06
2.10999e-06
2.88994e-06
2.3222e-06
2.3979e-06
1.97629e-06
6.4127e-06
2.16225e-06
3.29198e-06
2.10223e-06
2.66566e-06
1.94415e-06
2.91865e-06
2.58116e-06
2.11703e-06
2.09534e-06
1.91719e-06
7.06046e-06
2.25203e-06
2.06378e-06
6.28159e-06
2.12147e-06
2.90924e-06
2.12921e-06
6.4487e-06
1.41701e-06
2.0682e-06
6.58062e-06
2.52584e-06
2.39732e-06
7.42191e-07
2.22368e-06
7.06751e-07
7.00657e-07
8.93749e-07
2.53536e-06
2.26535e-06
1.33607e-06
7.84725e-07
2.32303e-06
6.06694e-07
6.68276e-07
6.84307e-07
2.51242e-06
2.31629e-06
7.8367e-07
6.80839e-07
6.22692e-06
6.7471e-07
6.65305e-07
7.01158e-07
1.8232e-06
1.90695e-06
6.86722e-07
7.04792e-07
1.86445e-06
2.28572e-06
6.8045e-07
7.16005e-07
1.82373e-06
6.01079e-07
2.02791e-06
7.4579e-07
5.74423e-07
1.80052e-06
1.454e-06
2.2702e-06
1.80636e-06
2.15356e-06
1.79089e-06
1.79456e-06
6.8231e-07
2.24737e-06
1.45239e-06
1.79556e-06
6.97875e-07
6.24265e-07
6.62717e-07
1.44627e-06
1.40138e-06
2.15258e-06
1.82851e-06
1.3994e-06
1.43932e-06
2.19226e-06
6.97732e-07
1.77726e-06
1.79162e-06
6.54258e-07
7.3397e-07
2.34895e-06
7.10392e-07
6.56982e-07
6.26314e-07
2.18926e-06
6.12493e-07
6.03901e-07
5.92831e-07
5.12031e-07
5.11667e-07
4.9467e-07
4.97016e-07
4.96269e-07
5.33079e-07
4.94191e-07
4.97855e-07
4.86862e-07
4.90626e-07
4.94649e-07
4.94954e-07
4.91922e-07
4.89615e-07
4.96354e-07
4.95189e-07
4.82188e-07
1.10854e-06
5.3299e-07
5.44763e-07
5.36655e-07
5.15417e-07
5.01772e-07
5.53774e-07
5.53774e-07
5.53774e-07
5.53774e-07
5.53774e-07
5.53774e-07
5.50785e-07
5.50785e-07
7.45291e-07
7.11668e-07
4.9897e-07

NodalForce_(N) 3 343 double
-4.8139e-07 -3.93511e-08 5.66715e-08
-5.14111e-06 -4.41215e-07 1.1582e-06
0.000192257 1.02032e-05 0.000592347
-5.48701e-06 -3.59864e-07 1.10314e-06
-1.03047e-05 -2.78294e-08 4.56925e-06
-1.32835e-05 -3.2062e-07 5.54634e-06
-1.95884e-05 4.01274e-08 1.21976e-05
-9.94521e-06 -1.86022e-07 5.81465e-06
-1.38239e-05 -2.30739e-09 7.2543e-06
-6.80366e-06 -2.47828e-07 2.84115e-06
-4.93161e-06 3.04355e-08 1.67253e-06
-1.82079e-05 -5.08893e-08 7.77627e-06
-6.57421e-06 1.11337e-07 2.49474e-06
-1.00126e-05 -4.08151e-07 1.36416e-06
-4.97155e-06 -7.08994e-08 1.69072e-06
-1.73708e-05 -2.08629e-07 8.86338e-06
-1.11388e-05 -2.32118e-07 5.81651e-06
-5.78535e-06 -2.41873e-07 1.26908e-06
0.000891597 0.000604275 0.000395537
-2.73116e-06 -1.39093e-07 4.41645e-07
-8.28462e-06 4.86508e-08 5.65578e-06
-2.26374e-05 4.62457e-07 1.47391e-05
0.00184691 -0.000299927 0.000403596
-1.7721e-06 6.74108e-08 1.55643e-06
-8.7786e-06 -9.87278e-09 5.84186e-06
-4.33976e-06 -3.29315e-07 2.62979e-06
-1.16458e-06 4.12638e-09 2.17462e-07
-2.2928e-06 2.33458e-07 1.51194e-06
-7.79281e-07 -9.71208e-08 4.25046e-07
-4.19412e-06 -2.16569e-07 8.77489e-07
-4.84374e-06 -3.46443e-07 2.81432e-06
-4.51204e-05 -1.99503e-08 2.4177e-05
-3.13824e-05 9.35455e-08 1.73371e-05
-1.90413e-05 1.06256e-07 1.17787e-05
-1.00692e-05 3.09874e-07 7.13778e-06
-2.21011e-05 -1.43136e-07 1.31335e-05
-8.40939e-06 3.26194e-07 5.52183e-06
-2.17286e-05 4.82586e-08 1.69356e-05
-6.38594e-06 -1.94332e-07 1.87488e-06
-1.18901e-05 -3.06845e-07 4.38535e-06
-7.59497e-06 -3.28661e-09 2.39714e-06
-1.98197e-05 -5.26374e-07 7.77791e-06
-9.92099e-06 -5.28703e-07 1.44979e-06
-2.3405e-06 2.46925e-10 4.95544e-07
-9.37696e-06 -2.68339e-07 2.89747e-06
0.000985847 -0.000123151 -0.000349121
-2.64039e-06 -1.87342e-07 4.21685e-07
0.000588999 0.000578235 -0.000411619
-8.95996e-06 -2.93538e-07 1.58034e-06
-1.8727e-06 -4.98863e-08 1.67604e-07
-7.71897e-06 -4.61932e-08 3.59473e-06
-1.51947e-05 -2.73254e-07 6.88587e-06
-5.66431e-06 -2.24379e-07 9.95655e-07
-4.1856e-06 -1.72521e-07 1.00509e-06
-3.38509e-06 -1.45756e-07 5.0019e-07
-1.54018e-05 2.52945e-07 9.50891e-06
0.000781455 -0.00022209 1.45366e-05
-6.33447e-07 -7.77059e-08 1.41657e-07
0.00194865 -0.000596059 0.000730938
-6.71117e-06 1.4163e-07 4.29149e-06
-3.86137e-06 -1.02824e-07 8.78399e-07
-8.74047e-06 4.13548e-07 6.78454e-06
-2.20487e-05 8.75624e-07 1.91719e-05
-1.4197e-05 2.78026e-07 1.02222e-05
-6.42776e-06 2.91508e-09 2.22559e-06
-1.93483e-06 -6.18898e-08 2.47892e-07
-2.12161e-06 3.17356e-08 5.07673e-07
-1.49562e-05 -2.1213e-07 6.90212e-06
-8.4405e-06 2.42158e-07 6.11586e-06
-8.06532e-06 4.96387e-07 6.06305e-06
-6.65218e-07 -4.52088e-08 4.83999e-07
-2.60305e-06 -3.68433e-08 5.88316e-07
-1.54105e-06 8.69395e-08 5.2142e-07
-9.07866e-06 -2.37507e-07 3.54184e-06
-3.61965e-06 -2.07799e-07 1.16974e-06
0.00130876 -0.000330411 -0.000478872
-5.47331e-06 -1.57729e-07 2.61037e-06
-4.46026e-07 -5.27307e-08 9.73933e-08
-1.04104e-05 -1.45545e-07 4.16648e-06
-9.45402e-06 8.47787e-08 4.13271e-06
-6.64356e-06 3.79823e-08 2.26527e-06
-7.02114e-06 -1.57279e-07 2.15951e-06
-1.26048e-05 3.11937e-07 8.35823e-06
-3.27097e-06 -1.84812e-07 1.01581e-06
0.00118355 0.000347401 0.000155826
-4.2245e-07 -2.85769e-08 5.97281e-08
0.00124299 -8.33921e-05 -0.000301519
0.00204406 -0.00016792 -0.000473329
0.00113299 0.000748792 -0.000578196
-7.75832e-07 -1.08498e-07 4.26887e-07
-2.36389e-06 -6.13887e-08 2.06211e-07
-8.75858e-06 -2.44478e-07 3.57337e-06
-9.93499e-06 -3.48747e-07 3.03717e-06
-6.43655e-06 8.09022e-09 3.03735e-06
-3.9613e-05 5.67998e-07 2.2516e-05
-4.54171e-06 3.45643e-07 3.32451e-06
-8.78626e-06 1.83281e-07 5.29986e-06
-4.61873e-06 1.76134e-07 3.69989e-06
0.00183946 0.000785179 -0.00011297
-1.51753e-05 -1.93514e-07 7.21982e-06
-2.77477e-06 1.55183e-07 2.98994e-06
-6.6867e-06 -1.0716e-07 5.30391e-06
-1.00619e-06 -1.71844e-08 2.64229e-07
-1.27622e-05 4.01915e-07 7.63742e-06
-3.82568e-07 -7.54881e-09 2.4229e-07
-3.50876e-06 3.15418e-07 3.03397e-06
-1.21529e-05 -1.89857e-07 6.90875e-06
-9.87552e-06 4.96843e-07 6.64105e-06
-1.36809e-05 1.72497e-07 6.88087e-06
-1.0163e-06 -2.51238e-08 9.27025e-08
-3.41664e-06 -5.28116e-08 3.34594e-06
-8.42632e-06 -3.36308e-07 5.2191e-06
-7.06435e-06 -3.16112e-07 5.34985e-06
0.000828982 0.000379468 -0.000338142
-4.42274e-06 2.55294e-07 3.80033e-06
-3.76858e-06 -1.62236e-07 5.89786e-07
-4.36793e-06 1.39473e-07 3.41694e-06
-1.51381e-05 8.00218e-08 1.03939e-05
-4.27045e-06 6.5923e-08 3.11438e-06
-4.75236e-06 1.77561e-07 2.59512e-06
-1.18517e-05 4.75466e-07 8.45158e-06
-1.42354e-05 2.06567e-07 9.0206e-06
-1.5865e-06 -2.13008e-08 2.33896e-07
0.00157727 0.000284998 0.000319375
-7.21601e-07 -2.92782e-08 6.02338e-08
-5.23085e-06 1.29796e-07 3.54422e-06
-2.84675e-06 -5.14992e-08 2.70841e-06
0.00173725 0.000407036 -0.000751512
-8.0421e-07 -5.65206e-08 9.22672e-08
-7.00864e-06 -2.20472e-07 2.68122e-06
-4.74684e-06 1.4161e-07 2.64996e-06
-7.90492e-06 1.91634e-07 4.90044e-06
-6.59371e-06 6.43936e-08 2.75539e-06
-8.20371e-06 -3.10385e-08 3.92695e-06
0.00106554 -0.000182066 0.000332942
-7.55278e-07 -3.12592e-09 6.17556e-08
0.00156383 -0.0004168 0.000316361
-3.13912e-06 2.53443e-07 2.69899e-06
-4.2569e-06 1.52113e-07 3.40311e-06
-1.0665e-05 1.36369e-07 8.59313e-06
-1.47376e-05 6.11253e-08 7.66084e-06
-5.57605e-06 1.01113e-07 2.80858e-06
-4.20904e-06 1.75431e-07 2.60044e-06
-7.42352e-06 2.46237e-07 4.9043e-06
0.0011059 0.000535711 -0.000653825
-8.77918e-06 2.12538e-07 4.11621e-06
-1.76553e-06 1.11792e-07 8.17664e-07
-1.7079e-05 1.34584e-07 1.40326e-05
-6.78614e-06 1.94906e-07 5.6068e-06
-1.7187e-06 1.01396e-08 5.63498e-07
-1.88811e-06 -4.98835e-08 5.53642e-07
-4.04743e-07 1.48543e-08 4.59519e-08
0.00246214 0.000743285 -8.53045e-05
-4.16477e-06 7.34049e-08 2.74708e-06
-3.71139e-06 9.64691e-08 2.32368e-06
-6.16563e-06 -6.89333e-09 2.93034e-06
0.00156833 0.000194257 -0.000662387
0.0009793 0.000750658 0.00160169
-4.75486e-06 -5.36871e-08 2.17483e-06
-9.63237e-06 2.52603e-07 6.44823e-06
-1.57117e-06 4.27518e-08 5.58936e-07
-2.11311e-06 1.4881e-08 4.40553e-07
-1.99288e-06 1.39807e-07 2.22232e-06
-3.07576e-06 -4.19584e-08 1.27164e-06
-7.54699e-06 1.4084e-07 4.52697e-06
-6.27369e-06 1.96106e-08 3.23812e-06
-2.73769e-06 4.82951e-08 2.95629e-06
-8.75024e-07 -1.15702e-07 6.31607e-07
-2.69347e-06 2.85929e-08 2.62011e-06
-2.23799e-06 9.65569e-08 1.78595e-06
-1.35479e-06 -7.71402e-08 1.32435e-06
-7.90972e-06 -1.24018e-07 5.26295e-06
-2.15296e-06 2.17751e-07 2.04255e-06
-3.59422e-06 -1.72383e-07 8.79738e-07
-5.09491e-06 -1.54587e-07 1.74864e-06
-1.9946e-06 -6.66946e-08 6.97151e-07
-5.16917e-06 1.16516e-07 2.57589e-06
-1.60083e-06 -1.70562e-08 3.34756e-07
-6.47953e-06 1.41036e-07 5.0097e-06
0.00183772 -0.000160656 0.000160812
-1.08228e-05 2.02073e-07 6.70681e-06
-3.95417e-06 1.08638e-07 4.21999e-06
-6.2526e-06 2.92419e-07 5.64788e-06
0.0014811 -0.000194692 -0.000347656
-1.56869e-06 -5.49581e-08 3.5884e-07
-4.62805e-06 1.49172e-07 2.52926e-06
-1.00757e-05 1.1733e-07 5.3685e-06
-6.93836e-06 6.19633e-08 3.73991e-06
-4.79848e-06 3.92151e-08 2.09042e-06
-8.05094e-06 -2.29078e-07 3.42128e-06
-3.0968e-06 3.00214e-08 1.48517e-06
-5.36139e-06 9.98201e-08 2.62861e-06
-2.83247e-06 -6.8614e-08 7.50016e-07
-1.13781e-06 -1.32684e-07 1.01726e-06
-9.81236e-07 2.90951e-08 2.74308e-07
-1.3687e-06 3.7392e-08 3.69989e-07
-3.94754e-06 1.46651e-07 3.60308e-06
-3.19973e-06 -1.39321e-07 1.73552e-06
-5.19626e-06 1.37306e-07 3.91976e-06
-1.89182e-06 -4.94023e-08 1.91064e-06
-4.62155e-06 2.17056e-07 3.43322e-06
0.00146958 -0.000218667 -2.29937e-05
-9.59626e-07 -5.6099e-08 1.37235e-07
0.00136372 -0.000610948 -4.33991e-05
-9.23515e-07 -3.08752e-08 7.84343e-07
-2.06365e-06 -2.59309e-08 1.18958e-06
-5.52742e-06 -2.64631e-07 3.30296e-06
-2.00475e-06 -8.81261e-09 2.09217e-06
-3.19282e-06 1.80448e-07 1.71797e-06
-3.12534e-06 1.30338e-07 1.50117e-06
-4.47305e-07 -3.40848e-08 4.89115e-08
-2.43006e-06 1.28777e-07 2.66582e-06
-6.56127e-06 1.30711e-07 4.28189e-06
-5.57061e-06 1.33912e-07 3.07026e-06
-5.10625e-06 -7.51857e-08 2.11094e-06
-7.63971e-07 8.09436e-08 2.9369e-07
-6.56133e-06 1.58443e-07 4.09792e-06
-3.59596e-06 -1.68476e-07 8.25006e-07
-1.49516e-06 -7.14836e-08 1.52921e-06
-4.08785e-06 1.06059e-07 4.24273e-06
-3.71073e-06 2.45506e-08 1.51454e-06
-7.53336e-06 1.72557e-07 5.22763e-06
-2.06947e-06 1.89144e-08 1.14977e-06
-4.92002e-06 2.68107e-07 3.08113e-06
-1.66759e-06 -2.89889e-08 3.86306e-07
0.00168786 0.000302325 0.000636652
-3.76838e-06 -8.01119e-08 1.29786e-06
-3.08111e-06 9.52273e-08 1.37793e-06
-5.1868e-06 -2.89091e-07 1.74146e-06
-2.40194e-06 4.66137e-09 8.28723e-07
-1.95761e-06 8.08787e-08 7.21741e-07
-6.10923e-06 -2.43817e-07 1.80233e-06
0.00210068 -0.00128196 3.63285e-05
0.00209974 0.000689831 -0.00104176
-1.20399e-06 -8.53155e-08 1.15086e-06
-6.61619e-06 -3.2938e-07 3.1317e-06
-1.30448e-06 9.76644e-08 8.42395e-07
-5.57231e-06 1.01724e-07 3.97065e-06
-5.66277e-06 -2.60216e-07 1.70078e-06
-5.61666e-06 -1.185e-07 2.33323e-06
-4.88014e-06 1.41665e-07 4.21623e-06
0.000706435 0.000757789 -8.8328e-05
-3.04375e-06 4.93698e-08 3.03538e-06
-2.07437e-07 1.91156e-08 1.79076e-07
0.000852924 4.70696e-05 -0.000989732
-1.82098e-06 1.40947e-08 6.48951e-07
0.00210753 -0.00110772 0.00012827
-4.65363e-06 1.866e-07 3.96573e-06
-2.37928e-06 8.18678e-08 2.32705e-06
0.000803308 -0.00104774 0.000112216
-1.23697e-06 -1.83215e-08 1.22947e-06
0.000686951 0.00112695 -0.00012828
-1.48205e-06 1.03036e-07 1.22736e-06
-2.18064e-06 9.99084e-08 1.37179e-06
-1.15352e-06 -9.25958e-08 9.97296e-07
-6.06765e-06 1.93812e-07 4.45109e-06
-3.82264e-07 4.95471e-08 4.08606e-07
0.000611223 -0.000260439 0.000783138
-5.69661e-06 -2.32085e-07 1.76873e-06
-1.25142e-06 4.47995e-08 5.09845e-07
-1.91276e-06 9.88105e-08 1.32463e-06
0.000391864 -0.000475833 0.000996327
-3.15097e-06 1.91001e-07 2.62155e-06
-3.95261e-06 1.80491e-07 3.35304e-06
-1.74603e-06 1.05516e-07 1.31833e-06
-1.22499e-06 5.59657e-08 1.21996e-06
-2.9244e-07 -2.93935e-08 5.58358e-08
0.00119019 0.000557681 0.000117387
0.000706708 -0.000982012 0.000163385
0.000747387 -0.00100109 8.76738e-05
-2.69219e-06 1.17369e-07 2.58986e-06
-1.51751e-06 9.33585e-08 1.11149e-06
-1.76551e-06 -8.32956e-09 6.84098e-07
-2.77983e-06 4.54882e-08 1.58643e-06
0.000682154 0.000566531 5.85133e-05
0.000553006 0.000469172 -0.000507085
-5.31378e-07 -1.5381e-08 8.26648e-08
-9.19933e-07 -2.34872e-08 8.29125e-08
-5.78163e-06 1.69124e-07 3.13671e-06
-9.16572e-07 -5.03208e-08 1.05133e-07
0.000751349 -0.000264954 -0.000280515
-6.38739e-06 1.43903e-07 3.75695e-06
-6.47549e-07 3.85436e-08 6.27536e-07
-4.14035e-06 2.91055e-07 3.92145e-06
-5.74844e-07 -3.77319e-09 8.78217e-08
-6.10906e-06 6.78343e-08 3.15616e-06
-2.56712e-06 3.61062e-08 1.48324e-06