# vtk DataFile Version 4.2
vtk output
ASCII
DATASET UNSTRUCTURED_GRID

POINTS 343 double
0.0015593 0.00421372 -1.82024e-05
0.00301614 0.00501921 0.00213994
0 0.00419538 0.00112517
0.00268518 0.00198681 0.00191072
0.00719992 0.00249802 0.00494963
0.00719753 0.0039203 0.006316
0.0105995 0.00491203 0.00487699
0.00865878 0.00496092 0.00359069
0.00951376 0.00341043 0.00680684
0.00694238 0.00507973 0.00491987
0.00582113 0.00119152 0.00993268
0.00735414 0.00217336 0.00782092
0.00584029 6.61939e-05 0.00825151
0.0027979 0.0020356 0.00800105
0.00596409 0.00260694 0.00993068
0.00966611 0.0065708 0.00683786
0.00891514 0.00629656 0.00508073
0.00314482 0.00222248 0.00510977
0 0.00143586 0.00417514
0.00221616 0.00349252 0.00401126
0.00951627 0.00331607 0.00305021
0.0107824 0.00235348 0.00493987
0 0.00270918 0.00154168
0.00579418 0.00150264 -6.70098e-05
0.00697637 0.0022768 0.00211562
0.00551501 0.00359602 0.00153839
0.001873 2.11846e-05 0.00403854
0.00583397 6.62922e-05 0.0016195
0.00364685 0.00699644 -4.21185e-05
0.00268772 0.00808508 0.00191301
0.00568187 0.00631881 0.00157811
0.0111107 0.00812957 0.00787208
0.0110732 0.00495931 0.00789767
0.0116503 0.00623178 0.00581383
0.0138554 0.00900353 0.00403299
0.0105223 0.00777211 0.00484218
0.0118815 0.0101392 0.00402886
0.0110757 0.00811609 0.00188496
0.00492016 0.00309685 0.00690356
0.00617303 0.00373816 0.00825333
0.00542269 0.00166856 0.00590731
0.00695046 0.007755 0.00759764
0.00275945 0.00804086 0.00795788
0.00391914 0.0100449 0.00708172
0.00543677 0.00846656 0.00589494
0 0.00695361 0.00262895
0.00228555 0.00626682 0.00406113
0 0.0040177 0.00850214
0.00321505 0.00502413 0.00762451
0.00198968 0.00419773 0.00997712
0.00996291 0.00724546 0.00988636
0.00850199 0.00607828 0.00832128
0.00284664 0.00797556 0.00470849
0.00422726 0.00699455 0.00641909
0.00220302 0.00610478 0.00590036
0.0138558 0.00596461 0.00815415
0 0.00718191 0.00711644
0.00219927 0.00580039 -2.56965e-05
0 0.00577432 0.00158701
0.0138556 0.00733815 0.00695456
0.00398552 0.00339719 0.00995336
0.0138522 0.00159466 0.0040154
0.0111887 0.00208898 0.00184763
0.0116657 0.0036541 0.00386272
0.00519165 0.00171323 0.00406825
0.0020906 0.0100245 0.0057905
0.0039165 4.49209e-05 0.00708319
0.00849837 0.00427891 0.00827953
0.0138533 0.00743338 0.00403594
0.0118778 0.000129566 0.00403018
0.00465142 0.0029281 -5.36596e-05
0.00375653 0.00158458 0.00995621
0.00393044 4.49722e-05 0.00278654
0.00667091 0.00527696 0.00747824
0.00439525 0.00320035 0.00311601
0 0.00849157 0.00581511
0.00677173 0.00375485 0.00370723
0.00213713 0.00273443 -2.48726e-05
0.00804843 0.0084171 0.00990786
0.00829991 0.0100955 0.00841159
0.00584358 0.0100669 0.00825059
0.00557397 0.00856692 0.00993514
0.0138549 0.00864526 0.0056529
0.00437255 0.00688744 0.00309907
0 0.00748929 0.00137438
0.00190396 0.00751173 -2.22318e-05
0 0.00287343 0.00335182
0 0.00580816 0.00831736
0 0.00429792 0.00253898
0.00352221 0.00433956 -4.06651e-05
0.00198924 0.00584242 0.00997709
0.00719202 0.00655883 0.00631787
0.00500496 0.00657011 0.0081764
0.00964686 0.00273633 0.00988949
0.0111357 0.00208368 0.00790903
0.00967582 0.000107479 0.00296855
0.00835978 0.00175956 0.00351527
0.0138517 0.00303088 0.00319123
0 0.00140616 0.00256446
0.00884929 0.00832942 0.00631977
0.00807743 0.00152784 -9.4393e-05
0.00838239 0.00364837 0.00150436
0.00437796 0.0100502 0.0057737
0.0118742 0.0101393 0.00569501
0.00355733 0.00144756 -4.10404e-05
0.00829626 9.28106e-05 0.00139628
0.00872082 0.00838836 0.00351461
0.0118712 0.000129641 0.00569663
0.00861802 0.00177086 0.00626734
0.0019481 0.00258655 0.00997752
0.0098791 0.00729589 -0.000117359
0.00717527 0.00777314 0.00208344
0.00825308 0.00618904 0.00150407
0 0.00686719 0.00578184
0.0138532 0.00156531 0.00240511
0.00246265 0.00363909 0.00637933
0.0138552 0.00864033 0.0024624
0.0116717 0.00632229 0.003997
0.00830036 0.0100965 0.00139428
0.00967444 0.000107111 0.00681769
0.0138527 0.00159419 0.00565881
0.011651 0.00370503 0.00592673
0.00209014 2.36946e-05 0.00579124
0 0.0013659 0.00748679
0.00189711 2.15408e-05 0.00750734
0.0138542 0.00702477 0.00561859
0.00807443 0.00858527 -9.6536e-05
0 0.0075208 0.00859127
0.0018927 0.00750835 0.00997827
0.00587525 0.00827343 0.00355874
0.0119215 0.0101382 0.00737511
0.0138579 0.00878358 0.00736353
0.00801376 0.00167795 0.0099082
0.0100754 0.0043023 0.00988447
0 0.0057735 0.00666667
0.00189794 0.0100222 0.00750656
0 0.00863025 0.00752641
0.0119153 0.000131372 0.00236758
0.0138531 0.00711283 0.00246831
0.0117378 0.00647621 0.00202489
0.0118093 0.00595795 0.00986625
0.0103939 0.00149165 0.00988167
0.011918 0.000131399 0.00737684
0.013855 0.00152446 0.0073254
0 0.00143551 0.00581971
0.00829603 9.27307e-05 0.00841227
0.00584857 6.60389e-05 0.00333171
0.0110133 0.00483386 0.00190497
0.0138518 0.00445503 0.00237894
0.00586816 0.0100675 0.00659863
0.00393182 0.0100449 0.00278508
0.00181971 2.07331e-05 0.00239728
0 0.00727418 0.00419576
0.013854 0.00592991 0.00650425
0.00967901 0.0101127 0.0029667
0.0104199 0.00875522 0.00988105
0 0.00574334 0.00336387
0 0.0043297 0.00416652
0.00953458 0.00589243 0.00989118
0.0138529 0.00317909 0.00675508
0.00586461 6.63212e-05 0.00660036
0.00343624 0.0100394 0.00857159
0.0103898 0.00148402 -0.000121794
0.00801465 0.00675816 0.00990803
0.0138584 0.00767613 0.00842714
0.0119469 0.00768888 0.0098643
0.0095983 0.00313189 -0.000112376
0.00466834 0.00579839 -5.40639e-05
0.0104485 0.00875147 -0.000123819
0.0104312 0.0101217 0.00126318
0.00802798 0.00695993 -9.53586e-05
0.00968342 0.00648284 0.00291918
0.0104284 0.000116579 0.0012643
0.00400085 0.00504453 0.00995333
0.00600984 0.00590183 0.00993039
0.00600874 0.00423482 0.0099303
0.0104336 0.0101197 0.00849751
0.00343373 3.91173e-05 0.00857257
0.0138526 0.0059 0.00320332
0 0.00302218 0.00691532
0.0138554 0.0041749 0.00833808
0.0117969 0.00415249 -0.000138761
0.0138533 0.00286688 0.00138429
0 0.00244495 0.00857025
0.0033912 0.00860893 0.00996051
0.0104294 0.000116396 0.00849856
0.0117784 0.00275611 0.00986626
0.0122801 0.0043328 0.00986008
0.00787335 0.0100909 0.00574255
0.00720231 0.00766649 0.00494886
0.00783485 0.0100905 0.00412279
0.00967814 0.0101122 0.00681642
0.00419294 0.00696346 0.00995122
0.00578377 0.00439768 -6.72468e-05
0.00393429 4.48812e-05 0.00435959
0.00437523 5.00196e-05 0.00577584
0.0138537 0.00435299 0.000967842
0.00505016 0.00839608 0.00152828
0.013852 0.00448658 0.00400629
0.00925502 0.00587974 -0.000109751
0.0119185 0.0101394 0.00236643
0 0.00848692 0.00262374
0.00187294 0.0100221 0.00403774
0 0.00885053 0.00419359
0.00582184 0.00891791 -6.89032e-05
0.00583731 0.0100672 0.00161809
0.00694217 0.00487228 0.00229722
0.0100209 0.00463669 -0.000117939
0.00783026 8.76396e-05 0.00412479
0.00786939 8.81832e-05 0.00574421
0.00181921 0.0100213 0.00239639
0.0118907 0.00258051 -0.000140127
0.0138532 0.00467888 0.00705821
0.00987568 0.0101153 0.00488491
0.00797177 0.00345466 0.00990803
0.00340993 3.90935e-05 0.00131692
0.0138564 0.00260295 0.00840607
0.00332347 0.00482992 0.00496124
0.00809768 0.00442358 -9.49942e-05
0.0115428 0.00594017 -0.000135559
0.00760735 0.0100875 0.0071328
0.0138519 0.00448692 0.00567235
0.00750184 0.0100867 0.0026864
0.00987268 0.000109027 0.0048861
0.00393586 0.010045 0.00435752
0 0.00452174 0.00721958
0.00627534 0.00729177 0.00992745
0.00760349 8.53563e-05 0.00713414
0.00500322 0.00513239 0.00353783
0.00590327 0.0100679 0.00493874
0.00589952 6.65968e-05 0.0049413
0.00509656 0.00527582 0.00611585
0 0.005744 0.00499998
0 0.00433013 0.00583333
0.00694177 0.0058249 -8.16301e-05
0.00692295 0.00641953 0.00347234
0.00749724 8.41016e-05 0.00268821
0.0138529 0.00589911 0.00483875
0.00512451 0.00646772 0.0047842
0.00797324 0.00509053 0.0099081
0.0138541 0.00593044 0.0014287
0 0.00666667 0
0.0119215 0.00765732 -0.000140387
0.00462451 5.28382e-05 -5.28853e-05
0 0.01 0.00666667
0.00694103 0.0100794 0.00991989
0 0.00288419 0.00499914
0.013855 0.00764706 0.00121555
0.0138567 0.00682283 -0.000158509
0 0.005 0.01
0.00693909 0.00296438 -8.08491e-05
0 0.005 0
0.0138562 0.000157604 0.00317377
0.0138619 0.0101534 0.00650375
0.00582475 0.00734188 -6.85909e-05
0.0138521 0.00304125 0.00483859
0.00693861 7.83796e-05 -8.04134e-05
0 0 0.00666667
0.00527438 0.0036778 0.00516539
0.00693755 7.77752e-05 0.00992039
0.0138573 0.000157447 0.00650594
0 0 0.005
0.0121837 0.0101416 0.00107709
0.0138581 0.00893411 0.00106171
0.0138562 0.000157249 0.00483951
0.013856 0.00515744 -0.000157763
0.001691 0.0012398 -1.96111e-05
0 0.00122008 0.00122008
0 0.00333333 0.01
0 0.00666667 0.01
0.0121824 0.00891967 -0.000143578
0.0138605 0.0101531 0.003172
0.00585217 0.0100672 0.00332981
0.0138629 0.0068224 0.0098349
0 0.00333333 0
0 0.00122008 0.00877992
0.00168983 1.91432e-05 0.0087609
0.00168987 0.00123939 0.0099805
0.0121859 0.0101396 0.00863973
0.00169062 0.00879929 0.00998047
0 0.00877992 0.00877992
0.0138615 0.00893254 0.00861606
0.00925602 0.0101077 -0.000110714
0.0138556 0.00137978 0.0010622
0.00169084 0.0100196 0.00876034
0.0121869 0.00891735 0.00986074
0.0138624 0.00515644 0.00983534
0 0 0.00333333
0.00925163 0.000103481 -0.000108026
0.0121799 0.000135886 0.00107748
0.00167909 1.91884e-05 0.00119229
0 0.00877992 0.00122008
0.00168981 0.00879981 -1.98258e-05
0.0016784 0.0100195 0.00119148
0.0138586 0.00137915 0.00861669
0.0121838 0.00135808 0.00986123
0.00925134 0.000103015 0.00989446
0.0121808 0.0013587 -0.00014305
0.0121822 0.000135535 0.0086411
0.0138564 0.00349174 -0.000157529
0.00462588 0.0100526 0.00994579
0.00341066 0.0100391 0.00131584
0.00925565 0.0101062 0.00989399
0.0138614 0.00348948 0.00983488
0 0.01 0.005
0.00363961 0.00852927 -4.2317e-05
0.0138606 0.0101533 0.00483848
0 0.01 0.00333333
0 0.00166667 0
0.0138576 0.000157678 0.00150829
0 0.00166667 0.01
0 0.00833333 0
0.0138591 0.00848947 -0.00015992
0.01386 0.000157658 0.00817172
0.013862 0.0101548 0.00150786
0.0138645 0.0101533 0.00817016
0.00231076 0.0100263 0.00997299
0 0.01 0.00833333
0.0115671 0.0101346 -0.000136753
0.0115633 0.000129601 -0.0001357
0.0115656 0.000129203 0.00986857
0.0115698 0.0101319 0.00986797
0 0 0.00833333
0.0138652 0.00848568 0.00983581
0.0023105 2.662e-05 -2.64929e-05
0 0 0.00166667
0.00462629 0.0100532 -5.43732e-05
0.0138625 0.00182631 0.00983604
0.013858 0.00182732 -0.000158128
0.00230889 2.62601e-05 0.0099736
0.00230999 0.0100266 -2.71857e-05
0 0.01 0.00166667
0.0138691 0.0101548 0.00983679
0 0 0.01
0.0138642 0.0101556 -0.000160657
0.013865 0.000156967 0.00983826
0 0.01 0.01
0.013861 0.000157093 -0.000159109
0 0.01 0
0 0 0
0.00694214 0.0100804 -8.29976e-05
0.00462301 5.25878e-05 0.00994649
0 0.00833333 0.01

CELLS 343 686
1 0
1 1
1 2
1 3
1 4
1 5
1 6
1 7
1 8
1 9
1 10
1 11
1 12
1 13
1 14
1 15
1 16
1 17
1 18
1 19
1 20
1 21
1 22
1 23
1 24
1 25
1 26
1 27
1 28
1 29
1 30
1 31
1 32
1 33
1 34
1 35
1 36
1 37
1 38
1 39
1 40
1 41
1 42
1 43
1 44
1 45
1 46
1 47
1 48
1 49
1 50
1 51
1 52
1 53
1 54
1 55
1 56
1 57
1 58
1 59
1 60
1 61
1 62
1 63
1 64
1 65
1 66
1 67
1 68
1 69
1 70
1 71
1 72
1 73
1 74
1 75
1 76
1 77
1 78
1 79
1 80
1 81
1 82
1 83
1 84
1 85
1 86
1 87
1 88
1 89
1 90
1 91
1 92
1 93
1 94
1 95
1 96
1 97
1 98
1 99
1 100
1 101
1 102
1 103
1 104
1 105
1 106
1 107
1 108
1 109
1 110
1 111
1 112
1 113
1 114
1 115
1 116
1 117
1 118
1 119
1 120
1 121
1 122
1 123
1 124
1 125
1 126
1 127
1 128
1 129
1 130
1 131
1 132
1 133
1 134
1 135
1 136
1 137
1 138
1 139
1 140
1 141
1 142
1 143
1 144
1 145
1 146
1 147
1 148
1 149
1 150
1 151
1 152
1 153
1 154
1 155
1 156
1 157
1 158
1 159
1 160
1 161
1 162
1 163
1 164
1 165
1 166
1 167
1 168
1 169
1 170
1 171
1 172
1 173
1 174
1 175
1 176
1 177
1 178
1 179
1 180
1 181
1 182
1 183
1 184
1 185
1 186
1 187
1 188
1 189
1 190
1 191
1 192
1 193
1 194
1 195
1 196
1 197
1 198
1 199
1 200
1 201
1 202
1 203
1 204
1 205
1 206
1 207
1 208
1 209
1 210
1 211
1 212
1 213
1 214
1 215
1 216
1 217
1 218
1 219
1 220
1 221
1 222
1 223
1 224
1 225
1 226
1 227
1 228
1 229
1 230
1 231
1 232
1 233
1 234
1 235
1 236
1 237
1 238
1 239
1 240
1 241
1 242
1 243
1 244
1 245
1 246
1 247
1 248
1 249
1 250
1 251
1 252
1 253
1 254
1 255
1 256
1 257
1 258
1 259
1 260
1 261
1 262
1 263
1 264
1 265
1 266
1 267
1 268
1 269
1 270
1 271
1 272
1 273
1 274
1 275
1 276
1 277
1 278
1 279
1 280
1 281
1 282
1 283
1 284
1 285
1 286
1 287
1 288
1 289
1 290
1 291
1 292
1 293
1 294
1 295
1 296
1 297
1 298
1 299
1 300
1 301
1 302
1 303
1 304
1 305
1 306
1 307
1 308
1 309
1 310
1 311
1 312
1 313
1 314
1 315
1 316
1 317
1 318
1 319
1 320
1 321
1 322
1 323
1 324
1 325
1 326
1 327
1 328
1 329
1 330
1 331
1 332
1 333
1 334
1 335
1 336
1 337
1 338
1 339
1 340
1 341
1 342

CELL_TYPES 343
1
1
1
1
1
1
1
1
1
1
1
1
1
1
1
1
1
1
1
1
1
1
1
1
1
1
1
1
1
1
1
1
1
1
1
1
1
1
1
1
1
1
1
1
1
1
1
1
1
1
1
1
1
1
1
1
1
1
1
1
1
1
1
1
1
1
1
1
1
1
1
1
1
1
1
1
1
1
1
1
1
1
1
1
1
1
1
1
1
1
1
1
1
1
1
1
1
1
1
1
1
1
1
1
1
1
1
1
1
1
1
1
1
1
1
1
1
1
1
1
1
1
1
1
1
1
1
1
1
1
1
1
1
1
1
1
1
1
1
1
1
1
1
1
1
1
1
1
1
1
1
1
1
1
1
1
1
1
1
1
1
1
1
1
1
1
1
1
1
1
1
1
1
1
1
1
1
1
1
1
1
1
1
1
1
1
1
1
1
1
1
1
1
1
1
1
1
1
1
1
1
1
1
1
1
1
1
1
1
1
1
1
1
1
1
1
1
1
1
1
1
1
1
1
1
1
1
1
1
1
1
1
1
1
1
1
1
1
1
1
1
1
1
1
1
1
1
1
1
1
1
1
1
1
1
1
1
1
1
1
1
1
1
1
1
1
1
1
1
1
1
1
1
1
1
1
1
1
1
1
1
1
1
1
1
1
1
1
1
1
1
1
1
1
1
1
1
1
1
1
1
1
1
1
1
1
1
1
1
1
1
1
1
1
1
1
1
1
1
1
1
1
1
1
1
1
1
1
1
1
1
1
1
1
1
1
1
1
1
1
1
1
1

POINT_DATA 343
FIELD FieldData 8

NodeID_(#) 1 343 int
0
1
2
3
4
5
6
7
8
9
10
11
12
13
14
15
16
17
18
19
20
21
22
23
24
25
26
27
28
29
30
31
32
33
34
35
36
37
38
39
40
41
42
43
44
45
46
47
48
49
50
51
52
53
54
55
56
57
58
59
60
61
62
63
64
65
66
67
68
69
70
71
72
73
74
75
76
77
78
79
80
81
82
83
84
85
86
87
88
89
90
91
92
93
94
95
96
97
98
99
100
101
102
103
104
105
106
107
108
109
110
111
112
113
114
115
116
117
118
119
120
121
122
123
124
125
126
127
128
129
130
131
132
133
134
135
136
137
138
139
140
141
142
143
144
145
146
147
148
149
150
151
152
153
154
155
156
157
158
159
160
161
162
163
164
165
166
167
168
169
170
171
172
173
174
175
176
177
178
179
180
181
182
183
184
185
186
187
188
189
190
191
192
193
194
195
196
197
198
199
200
201
202
203
204
205
206
207
208
209
210
211
212
213
214
215
216
217
218
219
220
221
222
223
224
225
226
227
228
229
230
231
232
233
234
235
236
237
238
239
240
241
242
243
244
245
246
247
248
249
250
251
252
253
254
255
256
257
258
259
260
261
262
263
264
265
266
267
268
269
270
271
272
273
274
275
276
277
278
279
280
281
282
283
284
285
286
287
288
289
290
291
292
293
294
295
296
297
298
299
300
301
302
303
304
305
306
307
308
309
310
311
312
313
314
315
316
317
318
319
320
321
322
323
324
325
326
327
328
329
330
331
332
333
334
335
336
337
338
339
340
341
342

Component_(#) 1 343 int
0
0
0
0
0
0
0
0
0
0
0
0
0
0
0
0
0
0
0
0
0
0
0
0
0
0
0
0
0
0
0
0
0
0
0
0
0
0
0
0
0
0
0
0
0
0
0
0
0
0
0
0
0
0
0
0
0
0
0
0
0
0
0
0
0
0
0
0
0
0
0
0
0
0
0
0
0
0
0
0
0
0
0
0
0
0
0
0
0
0
0
0
0
0
0
0
0
0
0
0
0
0
0
0
0
0
0
0
0
0
0
0
0
0
0
0
0
0
0
0
0
0
0
0
0
0
0
0
0
0
0
0
0
0
0
0
0
0
0
0
0
0
0
0
0
0
0
0
0
0
0
0
0
0
0
0
0
0
0
0
0
0
0
0
0
0
0
0
0
0
0
0
0
0
0
0
0
0
0
0
0
0
0
0
0
0
0
0
0
0
0
0
0
0
0
0
0
0
0
0
0
0
0
0
0
0
0
0
0
0
0
0
0
0
0
0
0
0
0
0
0
0
0
0
0
0
0
0
0
0
0
0
0
0
0
0
0
0
0
0
0
0
0
0
0
0
0
0
0
0
0
0
0
0
0
0
0
0
0
0
0
0
0
0
0
0
0
0
0
0
0
0
0
0
0
0
0
0
0
0
0
0
0
0
0
0
0
0
0
0
0
0
0
0
0
0
0
0
0
0
0
0
0
0
0
0
0
0
0
0
0
0
0
0
0
0
0
0
0
0
0
0
0
0
0
0
0
0
0
0
0
0
0
0
0
0
0
0
0
0
0
0
0

NodalMass_(kg) 1 343 double
3.15563e-06
1.41304e-05
2.20912e-06
1.71484e-05
8.42e-06
9.09306e-06
1.01179e-05
7.52198e-06
6.81096e-06
5.58223e-06
3.10888e-06
1.07575e-05
4.87011e-06
1.64955e-05
3.0246e-06
8.05984e-06
6.703e-06
1.0877e-05
4.18978e-06
8.16106e-06
6.14143e-06
1.17902e-05
2.23114e-06
4.25176e-06
1.09915e-05
7.41467e-06
4.21871e-06
3.92484e-06
3.08766e-06
1.31268e-05
7.72627e-06
1.65404e-05
1.19037e-05
7.97564e-06
3.81683e-06
1.11001e-05
3.81317e-06
1.39137e-05
6.37414e-06
8.00975e-06
7.6712e-06
1.21135e-05
1.6399e-05
2.78633e-06
8.93599e-06
2.58087e-06
7.57362e-06
4.23241e-06
1.31286e-05
3.80168e-06
2.7746e-06
7.16776e-06
1.21307e-05
5.11765e-06
8.19728e-06
4.58094e-06
2.79503e-06
3.26126e-06
4.12443e-06
2.11915e-06
3.35177e-06
3.61669e-06
1.56838e-05
7.33679e-06
8.24695e-06
5.00369e-06
2.82625e-06
7.20276e-06
3.26815e-06
4.18751e-06
2.02785e-06
2.42152e-06
3.11835e-06
5.97459e-06
5.87101e-06
4.09374e-06
5.45463e-06
2.28825e-06
4.49759e-06
4.38192e-06
4.50892e-06
4.39234e-06
4.27273e-06
5.32031e-06
1.53201e-06
2.38869e-06
2.02885e-06
4.38798e-06
3.17972e-06
3.14298e-06
4.61567e-06
5.87645e-06
8.18088e-06
2.48341e-06
1.53815e-05
3.49683e-06
7.35227e-06
2.01314e-06
2.0408e-06
7.98183e-06
4.41293e-06
7.1389e-06
1.20123e-06
5.03343e-06
1.61257e-06
4.12601e-06
8.73748e-06
4.37849e-06
7.97173e-06
2.13557e-06
3.38137e-06
9.48623e-06
7.40262e-06
1.80226e-06
2.10222e-06
7.98889e-06
1.87983e-06
7.44814e-06
4.19782e-06
2.37156e-06
4.31705e-06
6.06441e-06
4.30905e-06
2.16843e-06
1.8986e-06
1.81294e-06
3.89762e-06
2.44299e-06
1.65628e-06
8.01374e-06
1.64513e-06
2.3931e-06
3.01363e-06
2.99431e-06
1.36541e-06
1.87293e-06
2.09622e-06
1.94762e-06
1.87618e-06
6.37913e-06
4.58628e-06
2.02767e-06
1.61999e-06
2.41284e-06
3.8865e-06
4.44973e-06
2.29839e-06
1.17349e-05
3.11811e-06
1.354e-06
3.45063e-06
1.81846e-06
2.9382e-06
1.37381e-06
2.41464e-06
2.10451e-06
2.63927e-06
2.14166e-06
1.7943e-06
3.19976e-06
1.36989e-06
2.43489e-06
2.08158e-06
1.3601e-06
2.17203e-06
1.89924e-06
3.16996e-06
2.6119e-06
2.37677e-06
1.60225e-06
1.90684e-06
5.49206e-06
1.87878e-06
3.14313e-06
2.97301e-06
1.18454e-06
1.89263e-06
2.04166e-06
2.73572e-06
2.42405e-06
3.23083e-06
3.19752e-06
3.2142e-06
1.94492e-06
1.61196e-06
1.86876e-06
3.22435e-06
2.1114e-06
2.96917e-06
6.15288e-06
2.3097e-06
2.39729e-06
2.38029e-06
2.64508e-06
1.66557e-06
1.82377e-06
2.06583e-06
5.73271e-06
2.08467e-06
2.18324e-06
2.43522e-06
3.1188e-06
3.17316e-06
2.05447e-06
1.9592e-06
3.05718e-06
6.44327e-06
2.08796e-06
2.72615e-06
2.15709e-06
1.86812e-06
2.0028e-06
2.10999e-06
2.88994e-06
2.3222e-06
2.3979e-06
1.97629e-06
6.4127e-06
2.16225e-06
3.29198e-06
2.10223e-06
2.66566e-06
1.94415e-06
2.91865e-06
2.58116e-06
2.11703e-06
2.09534e-06
1.91719e-06
7.06046e-06
2.25203e-06
2.06378e-06
6.28159e-06
2.12147e-06
2.90924e-06
2.12921e-06
6.4487e-06
1.41701e-06
2.0682e-06
6.58062e-06
2.52584e-06
2.39732e-06
7.42191e-07
2.22368e-06
7.06751e-07
7.00657e-07
8.93749e-07
2.53536e-06
2.26535e-06
1.33607e-06
7.84725e-07
2.32303e-06
6.06694e-07
6.68276e-07
6.84307e-07
2.51242e-06
2.31629e-06
7.8367e-07
6.80839e-07
6.22692e-06
6.7471e-07
6.65305e-07
7.01158e-07
1.8232e-06
1.90695e-06
6.86722e-07
7.04792e-07
1.86445e-06
2.28572e-06
6.8045e-07
7.16005e-07
1.82373e-06
6.01079e-07
2.02791e-06
7.4579e-07
5.74423e-07
1.80052e-06
1.454e-06
2.2702e-06
1.80636e-06
2.15356e-06
1.79089e-06
1.79456e-06
6.8231e-07
2.24737e-06
1.45239e-06
1.79556e-06
6.97875e-07
6.24265e-07
6.62717e-07
1.44627e-06
1.40138e-06
2.15258e-06
1.82851e-06
1.3994e-06
1.43932e-06
2.19226e-06
6.97732e-07
1.77726e-06
1.79162e-06
6.54258e-07
7.3397e-07
2.34895e-06
7.10392e-07
6.56982e-07
6.26314e-07
2.18926e-06
6.12493e-07
6.03901e-07
5.92831e-07
5.12031e-07
5.11667e-07
4.9467e-07
4.97016e-07
4.96269e-07
5.33079e-07
4.94191e-07
4.97855e-07
4.86862e-07
4.90626e-07
4.94649e-07
4.94954e-07
4.91922e-07
4.89615e-07
4.96354e-07
4.95189e-07
4.82188e-07
1.10854e-06
5.3299e-07
5.44763e-07
5.36655e-07
5.15417e-07
5.01772e-07
5.53774e-07
5.53774e-07
5.53774e-07
5.53774e-07
5.53774e-07
5.53774e-07
5.50785e-07
5.50785e-07
7.45291e-07
7.11668e-07
4.9897e-07

NodalForce_(N) 3 343 double
-4.96566e-06 -2.05548e-07 2.76467e-07
-4.45188e-05 -1.82741e-06 3.215e-06
0.000203053 -9.0144e-06 0.000560803
-4.728e-05 -1.83996e-06 3.10524e-06
-6.45674e-05 -6.53373e-08 8.27957e-06
-7.36951e-05 -1.21238e-06 9.67716e-06
-0.000116267 5.45927e-07 2.08003e-05
-6.84334e-05 -4.36488e-07 1.07039e-05
-7.28271e-05 2.62213e-07 1.18802e-05
-4.25233e-05 -9.13548e-07 5.35221e-06
-2.17903e-05 1.03769e-07 2.86346e-06
-9.08434e-05 1.13288e-07 1.31041e-05
-3.225e-05 3.98242e-07 4.40808e-06
-5.3685e-05 -2.08241e-06 3.5693e-06
-2.2034e-05 -2.52596e-07 2.86633e-06
-9.04086e-05 -9.80357e-07 1.47086e-05
-6.62908e-05 -8.3661e-07 1.03464e-05
-3.73989e-05 -1.34289e-06 2.88692e-06
0.00122953 0.000557135 0.000300954
-1.95455e-05 -8.06829e-07 1.27678e-06
-5.93731e-05 6.38673e-07 1.01845e-05
-0.000134537 2.80962e-06 2.46257e-05
0.00216399 -0.000132515 0.000591265
-2.24512e-05 2.03516e-07 3.29709e-06
-7.5071e-05 2.58058e-07 1.10912e-05
-4.03983e-05 -9.38899e-07 5.37448e-06
-8.29317e-06 -2.41822e-07 5.49837e-07
-2.15614e-05 5.44819e-07 2.94725e-06
-1.08116e-05 -3.81998e-07 1.16008e-06
-3.73307e-05 -1.35669e-06 2.71005e-06
-4.44359e-05 -1.26238e-06 5.97243e-06
-0.000219364 -1.37424e-06 3.86563e-05
-0.000153327 4.0419e-07 2.74362e-05
-0.000103933 3.64992e-07 1.96016e-05
-5.78424e-05 6.84448e-07 1.22961e-05
-0.000129973 -7.93209e-07 2.30963e-05
-5.01972e-05 1.91292e-07 9.82558e-06
-0.000159748 1.42274e-07 3.1588e-05
-3.55658e-05 -9.44485e-07 3.6514e-06
-5.84508e-05 -1.31773e-06 7.54741e-06
-4.51862e-05 -2.24674e-07 4.62483e-06
-0.000100987 -2.43486e-06 1.35704e-05
-5.42655e-05 -2.33273e-06 3.94608e-06
-1.30724e-05 -3.38301e-07 1.17222e-06
-5.59789e-05 -1.53021e-06 6.05615e-06
0.000955373 -0.000346311 -0.00030115
-1.89757e-05 -8.19638e-07 1.29077e-06
0.0007998 0.00049493 -0.000475174
-4.95522e-05 -1.90867e-06 3.82008e-06
-9.24879e-06 -3.51118e-07 5.31887e-07
-3.42945e-05 -3.46618e-07 5.60841e-06
-7.31471e-05 -1.21629e-06 1.12194e-05
-3.86588e-05 -1.46182e-06 2.90314e-06
-2.48478e-05 -9.11514e-07 2.3089e-06
-2.06632e-05 -8.52559e-07 1.41001e-06
-7.34445e-05 9.25614e-07 1.48626e-05
0.000911685 -0.000242839 -1.7393e-05
-7.16767e-06 -3.0266e-07 5.13803e-07
0.00223863 -0.000653816 0.000957117
-3.35684e-05 3.48496e-07 6.86197e-06
-1.68368e-05 -5.04548e-07 1.60875e-06
-5.16231e-05 2.14689e-06 1.12296e-05
-0.000170992 5.16167e-06 3.4237e-05
-8.9344e-05 1.66918e-06 1.74686e-05
-4.4558e-05 -2.30681e-07 4.38675e-06
-1.21817e-05 -5.14124e-07 8.2825e-07
-1.19951e-05 -1.3792e-08 1.09106e-06
-7.22261e-05 -7.62229e-07 1.12316e-05
-4.89488e-05 6.50709e-07 1.04319e-05
-5.034e-05 2.38039e-06 1.01577e-05
-8.78834e-06 -1.89569e-07 1.11221e-06
-1.1284e-05 -1.83109e-07 1.09803e-06
-1.21481e-05 9.62061e-08 1.10085e-06
-4.6748e-05 -1.12203e-06 6.13373e-06
-2.70507e-05 -8.46145e-07 2.47808e-06
0.00148902 -0.000454615 -0.000529045
-3.86306e-05 -5.36796e-07 4.95059e-06
-4.84553e-06 -2.42726e-07 3.42079e-07
-4.58912e-05 -8.05848e-07 6.64857e-06
-4.50063e-05 -5.27136e-07 6.76278e-06
-3.25977e-05 -5.69378e-07 4.03022e-06
-3.12765e-05 -7.73969e-07 3.70281e-06
-6.66655e-05 6.4683e-07 1.38351e-05
-2.4922e-05 -8.14565e-07 2.34139e-06
0.00134566 0.000357533 8.28063e-05
-4.61867e-06 -1.89447e-07 2.82601e-07
0.00138882 -7.1841e-05 -0.000321734
0.00206843 -6.50043e-05 -0.000431426
0.00135998 0.000623052 -0.000555494
-1.05369e-05 -3.87361e-07 1.10869e-06
-1.14316e-05 -4.40552e-07 6.47558e-07
-4.86589e-05 -1.0993e-06 6.43778e-06
-4.95276e-05 -1.75662e-06 5.56947e-06
-2.86283e-05 2.57789e-07 4.79338e-06
-0.000193958 4.18136e-06 3.57397e-05
-3.30941e-05 1.35632e-06 5.88495e-06
-6.21509e-05 9.53166e-07 9.53992e-06
-2.85954e-05 9.64812e-07 6.25425e-06
0.00209802 0.00081018 -0.000169265
-8.21427e-05 -1.13513e-06 1.25779e-05
-3.23361e-05 7.59687e-07 5.84866e-06
-5.84662e-05 1.91288e-07 1.00584e-05
-6.10585e-06 -1.68647e-07 5.9236e-07
-6.87396e-05 1.12528e-07 1.30063e-05
-5.27569e-06 -6.68091e-08 5.92573e-07
-3.19423e-05 1.17388e-06 5.61162e-06
-8.2377e-05 -9.48852e-07 1.31541e-05
-5.47869e-05 2.44874e-06 1.08111e-05
-7.51959e-05 9.8657e-07 1.15538e-05
-5.0267e-06 -1.94834e-07 2.86958e-07
-3.26721e-05 -2.93799e-08 6.54568e-06
-7.03872e-05 -1.22785e-06 1.06327e-05
-6.13221e-05 -7.7303e-07 1.04765e-05
0.00104491 0.000418645 -0.000137545
-2.89849e-05 1.30709e-06 6.47577e-06
-2.23895e-05 -9.28082e-07 1.52205e-06
-2.75339e-05 3.83429e-07 6.04351e-06
-9.33e-05 6.06732e-07 1.80858e-05
-3.60568e-05 -2.67704e-07 6.30036e-06
-2.4923e-05 8.57241e-07 4.24994e-06
-6.37612e-05 2.50078e-06 1.35622e-05
-7.75142e-05 1.19081e-06 1.46876e-05
-9.81436e-06 -2.9756e-07 6.40568e-07
0.00177246 0.000342535 0.000223844
-4.0563e-06 -1.44138e-07 2.26728e-07
-2.79323e-05 3.47509e-07 5.84025e-06
-3.07733e-05 -2.68747e-07 5.62809e-06
0.00200339 0.000256643 -0.000792516
-3.92119e-06 -1.96898e-07 2.54019e-07
-5.10736e-05 -1.17996e-06 5.83721e-06
-2.33654e-05 5.25372e-08 4.28675e-06
-3.85989e-05 3.19437e-07 7.81437e-06
-2.897e-05 3.6251e-07 4.44329e-06
-3.6507e-05 6.29497e-09 6.15077e-06
0.00133989 -3.71331e-05 0.000217141
-4.26976e-06 -1.45768e-07 2.41212e-07
0.0018638 -0.000490373 0.000291744
-2.25228e-05 1.1651e-06 4.68514e-06
-2.71526e-05 4.71042e-07 5.9659e-06
-7.67516e-05 7.77994e-07 1.5625e-05
-6.57415e-05 1.47415e-07 1.17717e-05
-2.48087e-05 6.14032e-07 4.42017e-06
-2.11273e-05 9.28628e-07 4.16311e-06
-3.67856e-05 1.39795e-06 7.72786e-06
0.00128424 0.000472276 -0.000544702
-4.1895e-05 1.06991e-06 6.79312e-06
-1.32934e-05 3.00185e-07 1.57535e-06
-0.000129761 1.6576e-06 2.55831e-05
-4.40737e-05 1.21907e-06 9.74174e-06
-9.45724e-06 -1.65579e-07 1.10033e-06
-1.48129e-05 -4.57313e-07 1.41208e-06
-3.36039e-06 -7.35192e-08 1.63823e-07
0.00278306 0.000659497 -7.07641e-05
-2.13536e-05 3.14997e-07 4.4119e-06
-2.52583e-05 -7.82842e-08 4.43814e-06
-2.73805e-05 -2.00216e-07 4.5492e-06
0.00169033 0.000288624 -0.000665453
0.00153769 0.00049095 0.00114435
-2.10814e-05 -2.14538e-07 3.39574e-06
-4.89345e-05 1.37483e-06 1.02061e-05
-8.70451e-06 1.42115e-07 1.02152e-06
-1.04759e-05 -2.48727e-07 9.27184e-07
-1.98882e-05 7.08693e-07 4.14334e-06
-1.36317e-05 -2.33663e-07 2.0257e-06
-3.54258e-05 3.07979e-07 7.07072e-06
-2.78804e-05 -3.91976e-08 4.96539e-06
-2.83668e-05 5.35154e-07 5.61497e-06
-1.16198e-05 -3.98778e-07 1.48654e-06
-2.46182e-05 3.50403e-08 5.09905e-06
-1.73286e-05 4.96268e-08 3.42327e-06
-1.4791e-05 -1.73583e-07 2.70717e-06
-5.57301e-05 -2.88479e-07 9.74349e-06
-1.83615e-05 8.97554e-07 3.68446e-06
-1.5914e-05 -6.44457e-07 1.60061e-06
-2.2465e-05 -6.54575e-07 2.90195e-06
-8.82841e-06 -2.37308e-07 1.1599e-06
-2.42631e-05 -4.40113e-08 4.08548e-06
-7.99456e-06 -6.58856e-08 7.18751e-07
-3.97939e-05 8.195e-07 8.63127e-06
0.00200263 -7.54337e-05 0.000110217
-5.12794e-05 1.07911e-06 1.04701e-05
-3.58372e-05 9.06377e-07 7.85497e-06
-4.38736e-05 1.65947e-06 9.90967e-06
0.00169531 -0.00020256 -0.000418916
-7.03702e-06 -2.41722e-07 6.77988e-07
-2.1969e-05 8.10644e-07 4.05785e-06
-4.49043e-05 8.65654e-07 8.31395e-06
-3.09419e-05 3.91437e-07 5.75206e-06
-2.71975e-05 -3.37226e-07 3.83716e-06
-4.96672e-05 -1.01882e-06 6.53713e-06
-2.01455e-05 -2.2952e-07 2.91234e-06
-2.75918e-05 -1.49059e-07 4.44941e-06
-1.26712e-05 -4.30016e-07 1.34382e-06
-1.43993e-05 -3.46998e-07 2.16743e-06
-6.73116e-06 2.38476e-08 5.74949e-07
-8.41712e-06 4.7927e-08 7.54282e-07
-2.83195e-05 8.92564e-07 6.41731e-06
-2.9754e-05 -6.97049e-07 3.83996e-06
-3.04959e-05 7.44876e-07 6.54393e-06
-1.93926e-05 8.77511e-09 3.75093e-06
-3.09704e-05 1.94508e-07 6.29949e-06
0.00164957 -0.000181152 -1.85048e-05
-6.70737e-06 -3.02574e-07 4.71448e-07
0.00156287 -0.000646643 -4.36036e-05
-1.11464e-05 -1.85601e-07 1.74264e-06
-1.85999e-05 -3.4466e-07 2.6025e-06
-4.54518e-05 -8.225e-07 6.54706e-06
-1.98807e-05 2.23089e-07 3.99875e-06
-2.15544e-05 6.59602e-07 3.0941e-06
-1.80143e-05 5.02468e-07 2.59464e-06
-3.69793e-06 -1.7419e-07 2.2031e-07
-2.22724e-05 7.6659e-07 4.92704e-06
-3.28336e-05 6.29519e-07 6.76269e-06
-3.2386e-05 -1.3353e-07 5.52338e-06
-2.25697e-05 -1.86414e-07 3.39966e-06
-7.73003e-06 8.59729e-08 6.94022e-07
-3.10102e-05 9.40213e-07 6.39249e-06
-2.35926e-05 -8.89901e-07 1.933e-06
-1.64994e-05 -3.46985e-08 3.01714e-06
-3.67644e-05 6.09457e-07 7.98339e-06
-1.92329e-05 -2.60007e-07 2.67703e-06
-4.03255e-05 8.76158e-07 8.45892e-06
-1.56225e-05 -1.76188e-07 2.35487e-06
-2.97498e-05 1.14349e-06 5.22026e-06
-1.14471e-05 -3.45665e-07 1.01496e-06
0.00189399 0.000270029 0.000499207
-1.6671e-05 -4.34962e-07 2.14692e-06
-1.60454e-05 3.904e-07 2.34731e-06
-3.77369e-05 -1.18753e-06 3.73155e-06
-1.51701e-05 -2.93203e-07 1.74605e-06
-1.25803e-05 2.54861e-07 1.36416e-06
-3.62252e-05 -1.17411e-06 3.67588e-06
0.00250149 -0.000841142 -4.20561e-05
0.00250064 0.000548132 -0.000810392
-1.41018e-05 -2.42326e-07 2.38787e-06
-4.75562e-05 -1.10682e-06 6.21776e-06
-1.02942e-05 3.26022e-07 1.55173e-06
-3.11108e-05 5.5275e-07 6.58109e-06
-3.73061e-05 -1.19506e-06 3.69713e-06
-2.48891e-05 -4.4105e-07 3.73115e-06
-3.3625e-05 8.04392e-07 7.524e-06
0.000557443 0.000679896 -0.000274304
-2.61101e-05 2.6981e-07 5.7457e-06
-2.90898e-06 6.51834e-08 3.73879e-07
0.000753284 0.000193724 -0.000912149
-7.98588e-06 -1.08003e-07 1.06085e-06
0.00241535 -0.000896148 9.82185e-05
-3.20912e-05 5.7431e-07 7.18836e-06
-1.82758e-05 4.15555e-07 4.26082e-06
0.000808966 -0.000912863 0.000157814
-1.48979e-05 1.31261e-08 2.49202e-06
0.000660573 0.000919081 -0.000212693
-9.23537e-06 5.32616e-07 2.058e-06
-1.09609e-05 1.09825e-07 2.23505e-06
-1.41272e-05 -3.3406e-07 2.19221e-06
-3.40502e-05 1.07354e-06 7.26578e-06
-4.82972e-06 1.88535e-07 7.92864e-07
0.00057803 -0.000342531 0.000674344
-3.59654e-05 -1.00984e-06 3.56543e-06
-5.51999e-06 1.61189e-07 8.61929e-07
-9.85165e-06 5.25511e-07 2.10808e-06
0.000371857 -0.000574582 0.000846749
-2.303e-05 2.27147e-07 4.90887e-06
-2.72092e-05 4.47424e-07 6.11485e-06
-9.82876e-06 5.43162e-07 2.14251e-06
-9.50609e-06 2.99668e-07 2.22184e-06
-3.11636e-06 -1.26821e-07 2.06675e-07
0.00167355 0.00064221 0.000256089
0.00075655 -0.00084522 0.000193714
0.000712667 -0.00096424 0.000174951
-2.21734e-05 2.50616e-07 4.91758e-06
-9.03154e-06 1.2795e-07 1.95022e-06
-1.29918e-05 -2.49984e-07 1.53161e-06
-1.23818e-05 1.22754e-07 2.40858e-06
0.000589795 0.000634115 -9.65203e-05
0.000872695 0.000577427 -0.000457703
-2.81835e-06 -7.76405e-08 2.22269e-07
-4.58888e-06 -1.55205e-07 2.59372e-07
-2.68237e-05 9.23197e-08 4.89434e-06
-4.54786e-06 -2.00391e-07 2.92799e-07
0.00112147 -0.000418557 -0.000279807
-2.96362e-05 2.27322e-07 5.84195e-06
-6.28909e-06 1.19098e-08 1.25281e-06
-3.00307e-05 1.47962e-06 6.88715e-06
-3.02133e-06 -9.79829e-08 2.16702e-07
-2.70654e-05 5.77575e-09 4.82603e-06
-1.14503e-05 1.7857e-07 2.25558e-06