# vtk DataFile Version 4.2
vtk output
ASCII
DATASET UNSTRUCTURED_GRID

POINTS 343 double
0.00161171 0.00421625 -2.06265e-05
0.00311708 0.00502401 0.00213529
0 0.00419538 0.00112517
0.00277471 0.00199113 0.00190661
0.00744688 0.00251115 0.00493954
0.00744356 0.00393211 0.00630406
0.0109751 0.00492888 0.00486348
0.00896144 0.00497459 0.00358142
0.00984606 0.00342682 0.00679065
0.0071799 0.0050905 0.00491014
0.00601972 0.00120208 0.00992126
0.00760585 0.0021867 0.00780749
0.00603945 7.77241e-05 0.00824097
0.00289036 0.00204015 0.00799674
0.00616736 0.00261729 0.00991899
0.0100051 0.00658418 0.0068211
0.00922657 0.00630927 0.00506858
0.00324945 0.00222769 0.00510488
0 0.00143586 0.00417514
0.00228978 0.00349618 0.00400774
0.00985237 0.00333303 0.00304146
0.0111646 0.00237372 0.00492613
0 0.00270918 0.00154168
0.00599733 0.00151364 -7.15933e-05
0.00721863 0.00228957 0.00210927
0.00570512 0.00360516 0.00153308
0.0019352 2.43924e-05 0.00403556
0.00603651 7.83357e-05 0.00161378
0.00377319 0.00700231 -4.59715e-05
0.00277813 0.00808952 0.00190891
0.00587821 0.00632754 0.00157268
0.0115063 0.00814253 0.00785092
0.0114653 0.00497635 0.0078765
0.0120683 0.00624804 0.00579717
0.0143708 0.00901832 0.00401842
0.0108969 0.00778502 0.00482894
0.0123144 0.010149 0.00401619
0.0114764 0.00812909 0.00187781
0.00508567 0.00310489 0.00689572
0.00638283 0.00374825 0.00824201
0.00560564 0.00167849 0.00589881
0.00718926 0.00776466 0.00758524
0.00285089 0.00804543 0.00795351
0.00405199 0.0100501 0.00707552
0.00562166 0.00847419 0.00588657
0 0.00695361 0.00262895
0.00236174 0.00627046 0.00405761
0 0.0040177 0.00850214
0.00332176 0.00502916 0.0076195
0.00205548 0.00420082 0.00997389
0.0103145 0.00725814 0.00986473
0.008797 0.00609051 0.00830477
0.00294161 0.00798033 0.00470408
0.00436904 0.00700135 0.00641279
0.00227615 0.00610831 0.00589689
0.014365 0.00598435 0.00812837
0 0.00718191 0.00711644
0.00227375 0.00580397 -2.88524e-05
0 0.00577432 0.00158701
0.0143666 0.0073552 0.00693149
0.00411973 0.00340358 0.00994565
0.0143639 0.00162265 0.00400109
0.0115908 0.00211081 0.00184061
0.0120851 0.00367414 0.00385083
0.00536717 0.00172276 0.00406068
0.00216024 0.0100277 0.00578716
0.00404815 5.24096e-05 0.00707717
0.00879252 0.00429256 0.0082633
0.014367 0.00744937 0.00402123
0.0123056 0.000156489 0.00401764
0.00481311 0.00293604 -5.78508e-05
0.00388295 0.00159104 0.00994899
0.00406364 5.28591e-05 0.00278078
0.00689842 0.0052874 0.00746629
0.00454333 0.00320755 0.00310946
0 0.00849157 0.00581511
0.00700419 0.00376619 0.00369882
0.00220912 0.0027378 -2.79478e-05
0.00832936 0.00842733 0.00989021
0.00859151 0.0101044 0.00839504
0.00604478 0.0100742 0.00823981
0.00576516 0.00857475 0.00992358
0.0143682 0.00866049 0.00563352
0.00452041 0.00689443 0.00309263
0 0.00748929 0.00137438
0.00196842 0.007515 -2.51458e-05
0 0.00287343 0.00335182
0 0.00580816 0.00831736
0 0.00429792 0.00253898
0.00364354 0.00434519 -4.43749e-05
0.002055 0.00584565 0.0099738
0.0074389 0.00656935 0.00630621
0.00517409 0.0065779 0.00816733
0.00998496 0.00275388 0.0098693
0.0115299 0.00210498 0.00788798
0.0100189 0.000128485 0.00295996
0.00865165 0.00177572 0.00350643
0.0143647 0.0030564 0.00317934
0 0.00140616 0.00256446
0.0091591 0.0083406 0.00630532
0.00836473 0.00154386 -9.88211e-05
0.00867801 0.00366295 0.00149855
0.00452694 0.0100559 0.0057668
0.0123049 0.0101491 0.00567812
0.00368029 0.00145405 -4.46904e-05
0.00858971 0.000110918 0.00139042
0.00902865 0.00839936 0.00350524
0.0122969 0.000156403 0.00567946
0.00891676 0.0017873 0.00625334
0.00201243 0.0025896 0.00997433
0.0102363 0.00730863 -0.000121517
0.00742619 0.00778307 0.00207704
0.00854434 0.00620105 0.00149834
0 0.00686719 0.00578184
0.0143672 0.00159362 0.00239502
0.00254418 0.00364301 0.0063755
0.0143726 0.00865552 0.00245215
0.0120922 0.00633878 0.00398459
0.0085976 0.0101051 0.00138865
0.010014 0.000128192 0.0068008
0.0143627 0.00162182 0.005639
0.012068 0.00372521 0.00590935
0.0021596 2.72027e-05 0.00578797
0 0.0013659 0.00748679
0.00195994 2.47462e-05 0.00750452
0.0143657 0.00704187 0.0055997
0.00836384 0.00859545 -0.000100277
0 0.0075208 0.00859127
0.00195531 0.00751151 0.00997511
0.00607679 0.00828164 0.00355098
0.0123529 0.0101482 0.00735372
0.0143702 0.0087985 0.00733933
0.00829079 0.00169296 0.00989139
0.0104296 0.00431875 0.00986315
0 0.0057735 0.00666667
0.00196097 0.0100251 0.0075036
0 0.00863025 0.00752641
0.0123469 0.000158516 0.00235884
0.0143687 0.00712936 0.00245795
0.0121637 0.00649212 0.00201722
0.0122309 0.00597472 0.00984061
0.0107605 0.00151155 0.00985966
0.0123446 0.000158086 0.00735562
0.0143639 0.00155224 0.00730131
0 0.00143551 0.00581971
0.0085834 0.000110274 0.00839609
0.0060493 7.82511e-05 0.00332458
0.011409 0.00485122 0.00189796
0.0143663 0.0044782 0.00236957
0.00607006 0.0100744 0.00658872
0.00406641 0.01005 0.00277935
0.00188037 2.39604e-05 0.00239429
0 0.00727418 0.00419576
0.0143642 0.00595025 0.00648242
0.0100272 0.0101219 0.00295798
0.0107903 0.00876725 0.00985838
0 0.00574334 0.00336387
0 0.0043297 0.00416652
0.00986911 0.00590647 0.00987059
0.0143621 0.00320452 0.00673229
0.00606412 7.8312e-05 0.0065904
0.0035524 0.0100439 0.00856548
0.0107652 0.00150494 -0.000126211
0.00829291 0.00676962 0.00989088
0.0143689 0.00769299 0.00840061
0.0123754 0.0077034 0.00983813
0.00994268 0.00314963 -0.000116867
0.00483079 0.0058058 -5.82457e-05
0.0108292 0.00876326 -0.000127904
0.0108112 0.010131 0.00125704
0.00831413 0.00697124 -9.92443e-05
0.0100273 0.00649616 0.00291055
0.0108031 0.000139734 0.00125819
0.00413571 0.00505086 0.00994561
0.00621494 0.00591138 0.009918
0.00621353 0.0042446 0.0099182
0.0108059 0.0101296 0.00847645
0.00354887 4.56465e-05 0.00856675
0.0143661 0.00592098 0.00319143
0 0.00302218 0.00691532
0.0143638 0.00419863 0.00831195
0.0122285 0.00417275 -0.000142353
0.014369 0.00289268 0.00137727
0 0.00244495 0.00857025
0.00350582 0.008614 0.00995387
0.0107973 0.000138919 0.00847787
0.0121982 0.00277779 0.00984094
0.0127207 0.00435316 0.00983356
0.00814865 0.0100993 0.00572995
0.00745091 0.00767652 0.00493853
0.00811013 0.0100987 0.00411303
0.0100221 0.0101217 0.00679936
0.00433483 0.00697031 0.00994287
0.00598606 0.00440704 -7.13853e-05
0.00406693 5.24403e-05 0.00435366
0.00452266 5.85973e-05 0.00576897
0.0143707 0.00437641 0.00096183
0.00522506 0.00840335 0.00152308
0.014364 0.00450934 0.0039914
0.00958702 0.00589354 -0.000113835
0.0123553 0.0101492 0.00235739
0 0.00848692 0.00262374
0.00193555 0.0100251 0.00403473
0 0.00885053 0.00419359
0.00602775 0.00892571 -7.2903e-05
0.00604179 0.0100741 0.00161243
0.00718255 0.0048833 0.00229069
0.0103818 0.00465298 -0.000122117
0.00810233 0.000104269 0.00411554
0.00814128 0.000104809 0.00573192
0.00188038 0.0100241 0.00239332
0.0123256 0.00260311 -0.000143793
0.0143626 0.00470137 0.00703455
0.0102292 0.0101244 0.00487195
0.008247 0.00346808 0.00989158
0.00352627 4.61338e-05 0.00131251
0.0143647 0.00262915 0.00837975
0.00343449 0.00483517 0.00495624
0.00838558 0.00443714 -9.9109e-05
0.0119645 0.00595646 -0.000139371
0.00787266 0.010096 0.00711957
0.0143623 0.00450967 0.00565291
0.00776653 0.0100948 0.00267886
0.0102212 0.000130763 0.00487359
0.00406983 0.0100502 0.0043516
0 0.00452174 0.00721958
0.00649071 0.00730082 0.00991423
0.0078653 0.000101265 0.00712068
0.00517221 0.00514027 0.00353072
0.00610666 0.0100745 0.00493006
0.00610058 7.90459e-05 0.00493259
0.00526806 0.00528386 0.00610811
0 0.005744 0.00499998
0 0.00433013 0.00583333
0.00718689 0.00583561 -8.56244e-05
0.00716177 0.00642982 0.00346415
0.00775901 0.000100038 0.00268077
0.0143643 0.00592031 0.00482159
0.00529751 0.00647571 0.00477671
0.00824891 0.00510305 0.0098915
0.0143706 0.00595106 0.00142186
0 0.00666667 0
0.0123604 0.00767193 -0.000144085
0.00478601 6.273e-05 -5.73879e-05
0 0.01 0.00666667
0.00718313 0.0100868 0.00990553
0 0.00288419 0.00499914
0.0143734 0.00766283 0.00120942
0.014377 0.00684125 -0.000162454
0 0.005 0.01
0.00718382 0.00297696 -8.51957e-05
0 0.005 0
0.0143702 0.000190903 0.00316184
0.0143775 0.0101635 0.00648152
0.00602965 0.00735049 -7.25336e-05
0.0143629 0.00306734 0.0048215
0.0071845 9.39699e-05 -8.56094e-05
0 0 0.00666667
0.00545191 0.00368637 0.00515751
0.00717671 9.22599e-05 0.00990665
0.0143678 0.000190351 0.00648368
0 0 0.005
0.012634 0.0101513 0.00107124
0.0143782 0.00894834 0.00105574
0.0143682 0.000190321 0.00482222
0.0143757 0.00517936 -0.000161301
0.00174781 0.00124253 -2.21163e-05
0 0.00122008 0.00122008
0 0.00333333 0.01
0 0.00666667 0.01
0.0126338 0.00893225 -0.000147218
0.0143795 0.0101631 0.00315936
0.00605486 0.010074 0.00332235
0.0143726 0.00684069 0.00980443
0 0.00333333 0
0 0.00122008 0.00877992
0.00174583 2.206e-05 0.00875828
0.00174566 0.00124208 0.00997772
0.0126278 0.0101499 0.00861515
0.00174661 0.00880201 0.00997762
0 0.00877992 0.00877992
0.014373 0.00894696 0.00858896
0.00959243 0.0101163 -0.000115259
0.0143718 0.00140885 0.00105577
0.0017471 0.0100221 0.00875763
0.0126265 0.00893009 0.00983395
0.014371 0.00517788 0.00980502
0 0 0.00333333
0.00958377 0.000124742 -0.000113313
0.012625 0.00016389 0.00107161
0.00173545 2.22844e-05 0.00118982
0 0.00877992 0.00122008
0.00174711 0.00880267 -2.23827e-05
0.00173525 0.0100221 0.00118892
0.0143667 0.00140733 0.00858968
0.0126203 0.00138245 0.009835
0.00957492 0.000123147 0.00987544
0.0126276 0.00138429 -0.000146782
0.0126193 0.000162687 0.00861667
0.0143754 0.00351668 -0.000161019
0.00478438 0.010058 0.00993683
0.00352819 0.0100436 0.0013114
0.00958351 0.010115 0.00987446
0.0143696 0.00351462 0.00980484
0 0.01 0.005
0.00376628 0.00853484 -4.61647e-05
0.0143776 0.0101632 0.00482179
0 0.01 0.00333333
0 0.00166667 0
0.0143739 0.000190771 0.0015007
0 0.00166667 0.01
0 0.00833333 0
0.0143814 0.00850413 -0.000163067
0.0143693 0.000189967 0.00814557
0.0143834 0.010165 0.00150053
0.0143788 0.0101637 0.00814391
0.00238845 0.0100292 0.00996906
0 0.01 0.00833333
0.0119948 0.0101436 -0.000141237
0.0119857 0.000156682 -0.000140407
0.011978 0.000154803 0.00984422
0.0119866 0.0101417 0.00984301
0 0 0.00833333
0.0143761 0.00850106 0.00980538
0.00238928 3.147e-05 -2.9661e-05
0 0 0.00166667
0.00478948 0.010059 -5.85086e-05
0.0143704 0.00185341 0.00980608
0.0143767 0.0018555 -0.000161849
0.00238594 3.05355e-05 0.00996966
0.00238958 0.0100299 -3.02339e-05
0 0.01 0.00166667
0.0143818 0.0101654 0.0098068
0 0 0.01
0.0143884 0.010166 -0.000164344
0.0143728 0.000188792 0.00980867
0 0.01 0.01
0.0143796 0.000190495 -0.000163429
0 0.01 0
0 0 0
0.00719082 0.0100877 -8.72737e-05
0.00477993 6.15074e-05 0.00993754
0 0.00833333 0.01

CELLS 343 686
1 0
1 1
1 2
1 3
1 4
1 5
1 6
1 7
1 8
1 9
1 10
1 11
1 12
1 13
1 14
1 15
1 16
1 17
1 18
1 19
1 20
1 21
1 22
1 23
1 24
1 25
1 26
1 27
1 28
1 29
1 30
1 31
1 32
1 33
1 34
1 35
1 36
1 37
1 38
1 39
1 40
1 41
1 42
1 43
1 44
1 45
1 46
1 47
1 48
1 49
1 50
1 51
1 52
1 53
1 54
1 55
1 56
1 57
1 58
1 59
1 60
1 61
1 62
1 63
1 64
1 65
1 66
1 67
1 68
1 69
1 70
1 71
1 72
1 73
1 74
1 75
1 76
1 77
1 78
1 79
1 80
1 81
1 82
1 83
1 84
1 85
1 86
1 87
1 88
1 89
1 90
1 91
1 92
1 93
1 94
1 95
1 96
1 97
1 98
1 99
1 100
1 101
1 102
1 103
1 104
1 105
1 106
1 107
1 108
1 109
1 110
1 111
1 112
1 113
1 114
1 115
1 116
1 117
1 118
1 119
1 120
1 121
1 122
1 123
1 124
1 125
1 126
1 127
1 128
1 129
1 130
1 131
1 132
1 133
1 134
1 135
1 136
1 137
1 138
1 139
1 140
1 141
1 142
1 143
1 144
1 145
1 146
1 147
1 148
1 149
1 150
1 151
1 152
1 153
1 154
1 155
1 156
1 157
1 158
1 159
1 160
1 161
1 162
1 163
1 164
1 165
1 166
1 167
1 168
1 169
1 170
1 171
1 172
1 173
1 174
1 175
1 176
1 177
1 178
1 179
1 180
1 181
1 182
1 183
1 184
1 185
1 186
1 187
1 188
1 189
1 190
1 191
1 192
1 193
1 194
1 195
1 196
1 197
1 198
1 199
1 200
1 201
1 202
1 203
1 204
1 205
1 206
1 207
1 208
1 209
1 210
1 211
1 212
1 213
1 214
1 215
1 216
1 217
1 218
1 219
1 220
1 221
1 222
1 223
1 224
1 225
1 226
1 227
1 228
1 229
1 230
1 231
1 232
1 233
1 234
1 235
1 236
1 237
1 238
1 239
1 240
1 241
1 242
1 243
1 244
1 245
1 246
1 247
1 248
1 249
1 250
1 251
1 252
1 253
1 254
1 255
1 256
1 257
1 258
1 259
1 260
1 261
1 262
1 263
1 264
1 265
1 266
1 267
1 268
1 269
1 270
1 271
1 272
1 273
1 274
1 275
1 276
1 277
1 278
1 279
1 280
1 281
1 282
1 283
1 284
1 285
1 286
1 287
1 288
1 289
1 290
1 291
1 292
1 293
1 294
1 295
1 296
1 297
1 298
1 299
1 300
1 301
1 302
1 303
1 304
1 305
1 306
1 307
1 308
1 309
1 310
1 311
1 312
1 313
1 314
1 315
1 316
1 317
1 318
1 319
1 320
1 321
1 322
1 323
1 324
1 325
1 326
1 327
1 328
1 329
1 330
1 331
1 332
1 333
1 334
1 335
1 336
1 337
1 338
1 339
1 340
1 341
1 342

CELL_TYPES 343
1
1
1
1
1
1
1
1
1
1
1
1
1
1
1
1
1
1
1
1
1
1
1
1
1
1
1
1
1
1
1
1
1
1
1
1
1
1
1
1
1
1
1
1
1
1
1
1
1
1
1
1
1
1
1
1
1
1
1
1
1
1
1
1
1
1
1
1
1
1
1
1
1
1
1
1
1
1
1
1
1
1
1
1
1
1
1
1
1
1
1
1
1
1
1
1
1
1
1
1
1
1
1
1
1
1
1
1
1
1
1
1
1
1
1
1
1
1
1
1
1
1
1
1
1
1
1
1
1
1
1
1
1
1
1
1
1
1
1
1
1
1
1
1
1
1
1
1
1
1
1
1
1
1
1
1
1
1
1
1
1
1
1
1
1
1
1
1
1
1
1
1
1
1
1
1
1
1
1
1
1
1
1
1
1
1
1
1
1
1
1
1
1
1
1
1
1
1
1
1
1
1
1
1
1
1
1
1
1
1
1
1
1
1
1
1
1
1
1
1
1
1
1
1
1
1
1
1
1
1
1
1
1
1
1
1
1
1
1
1
1
1
1
1
1
1
1
1
1
1
1
1
1
1
1
1
1
1
1
1
1
1
1
1
1
1
1
1
1
1
1
1
1
1
1
1
1
1
1
1
1
1
1
1
1
1
1
1
1
1
1
1
1
1
1
1
1
1
1
1
1
1
1
1
1
1
1
1
1
1
1
1
1
1
1
1
1
1
1
1
1
1
1
1
1
1
1
1
1
1
1
1
1
1
1
1
1
1
1
1
1
1
1

POINT_DATA 343
FIELD FieldData 8

NodeID_(#) 1 343 int
0
1
2
3
4
5
6
7
8
9
10
11
12
13
14
15
16
17
18
19
20
21
22
23
24
25
26
27
28
29
30
31
32
33
34
35
36
37
38
39
40
41
42
43
44
45
46
47
48
49
50
51
52
53
54
55
56
57
58
59
60
61
62
63
64
65
66
67
68
69
70
71
72
73
74
75
76
77
78
79
80
81
82
83
84
85
86
87
88
89
90
91
92
93
94
95
96
97
98
99
100
101
102
103
104
105
106
107
108
109
110
111
112
113
114
115
116
117
118
119
120
121
122
123
124
125
126
127
128
129
130
131
132
133
134
135
136
137
138
139
140
141
142
143
144
145
146
147
148
149
150
151
152
153
154
155
156
157
158
159
160
161
162
163
164
165
166
167
168
169
170
171
172
173
174
175
176
177
178
179
180
181
182
183
184
185
186
187
188
189
190
191
192
193
194
195
196
197
198
199
200
201
202
203
204
205
206
207
208
209
210
211
212
213
214
215
216
217
218
219
220
221
222
223
224
225
226
227
228
229
230
231
232
233
234
235
236
237
238
239
240
241
242
243
244
245
246
247
248
249
250
251
252
253
254
255
256
257
258
259
260
261
262
263
264
265
266
267
268
269
270
271
272
273
274
275
276
277
278
279
280
281
282
283
284
285
286
287
288
289
290
291
292
293
294
295
296
297
298
299
300
301
302
303
304
305
306
307
308
309
310
311
312
313
314
315
316
317
318
319
320
321
322
323
324
325
326
327
328
329
330
331
332
333
334
335
336
337
338
339
340
341
342

Component_(#) 1 343 int
0
0
0
0
0
0
0
0
0
0
0
0
0
0
0
0
0
0
0
0
0
0
0
0
0
0
0
0
0
0
0
0
0
0
0
0
0
0
0
0
0
0
0
0
0
0
0
0
0
0
0
0
0
0
0
0
0
0
0
0
0
0
0
0
0
0
0
0
0
0
0
0
0
0
0
0
0
0
0
0
0
0
0
0
0
0
0
0
0
0
0
0
0
0
0
0
0
0
0
0
0
0
0
0
0
0
0
0
0
0
0
0
0
0
0
0
0
0
0
0
0
0
0
0
0
0
0
0
0
0
0
0
0
0
0
0
0
0
0
0
0
0
0
0
0
0
0
0
0
0
0
0
0
0
0
0
0
0
0
0
0
0
0
0
0
0
0
0
0
0
0
0
0
0
0
0
0
0
0
0
0
0
0
0
0
0
0
0
0
0
0
0
0
0
0
0
0
0
0
0
0
0
0
0
0
0
0
0
0
0
0
0
0
0
0
0
0
0
0
0
0
0
0
0
0
0
0
0
0
0
0
0
0
0
0
0
0
0
0
0
0
0
0
0
0
0
0
0
0
0
0
0
0
0
0
0
0
0
0
0
0
0
0
0
0
0
0
0
0
0
0
0
0
0
0
0
0
0
0
0
0
0
0
0
0
0
0
0
0
0
0
0
0
0
0
0
0
0
0
0
0
0
0
0
0
0
0
0
0
0
0
0
0
0
0
0
0
0
0
0
0
0
0
0
0
0
0
0
0
0
0
0
0
0
0
0
0
0
0
0
0
0
0

NodalMass_(kg) 1 343 double
3.15563e-06
1.41304e-05
2.20912e-06
1.71484e-05
8.42e-06
9.09306e-06
1.01179e-05
7.52198e-06
6.81096e-06
5.58223e-06
3.10888e-06
1.07575e-05
4.87011e-06
1.64955e-05
3.0246e-06
8.05984e-06
6.703e-06
1.0877e-05
4.18978e-06
8.16106e-06
6.14143e-06
1.17902e-05
2.23114e-06
4.25176e-06
1.09915e-05
7.41467e-06
4.21871e-06
3.92484e-06
3.08766e-06
1.31268e-05
7.72627e-06
1.65404e-05
1.19037e-05
7.97564e-06
3.81683e-06
1.11001e-05
3.81317e-06
1.39137e-05
6.37414e-06
8.00975e-06
7.6712e-06
1.21135e-05
1.6399e-05
2.78633e-06
8.93599e-06
2.58087e-06
7.57362e-06
4.23241e-06
1.31286e-05
3.80168e-06
2.7746e-06
7.16776e-06
1.21307e-05
5.11765e-06
8.19728e-06
4.58094e-06
2.79503e-06
3.26126e-06
4.12443e-06
2.11915e-06
3.35177e-06
3.61669e-06
1.56838e-05
7.33679e-06
8.24695e-06
5.00369e-06
2.82625e-06
7.20276e-06
3.26815e-06
4.18751e-06
2.02785e-06
2.42152e-06
3.11835e-06
5.97459e-06
5.87101e-06
4.09374e-06
5.45463e-06
2.28825e-06
4.49759e-06
4.38192e-06
4.50892e-06
4.39234e-06
4.27273e-06
5.32031e-06
1.53201e-06
2.38869e-06
2.02885e-06
4.38798e-06
3.17972e-06
3.14298e-06
4.61567e-06
5.87645e-06
8.18088e-06
2.48341e-06
1.53815e-05
3.49683e-06
7.35227e-06
2.01314e-06
2.0408e-06
7.98183e-06
4.41293e-06
7.1389e-06
1.20123e-06
5.03343e-06
1.61257e-06
4.12601e-06
8.73748e-06
4.37849e-06
7.97173e-06
2.13557e-06
3.38137e-06
9.48623e-06
7.40262e-06
1.80226e-06
2.10222e-06
7.98889e-06
1.87983e-06
7.44814e-06
4.19782e-06
2.37156e-06
4.31705e-06
6.06441e-06
4.30905e-06
2.16843e-06
1.8986e-06
1.81294e-06
3.89762e-06
2.44299e-06
1.65628e-06
8.01374e-06
1.64513e-06
2.3931e-06
3.01363e-06
2.99431e-06
1.36541e-06
1.87293e-06
2.09622e-06
1.94762e-06
1.87618e-06
6.37913e-06
4.58628e-06
2.02767e-06
1.61999e-06
2.41284e-06
3.8865e-06
4.44973e-06
2.29839e-06
1.17349e-05
3.11811e-06
1.354e-06
3.45063e-06
1.81846e-06
2.9382e-06
1.37381e-06
2.41464e-06
2.10451e-06
2.63927e-06
2.14166e-06
1.7943e-06
3.19976e-06
1.36989e-06
2.43489e-06
2.08158e-06
1.3601e-06
2.17203e-06
1.89924e-06
3.16996e-06
2.6119e-06
2.37677e-06
1.60225e-06
1.90684e-06
5.49206e-06
1.87878e-06
3.14313e-06
2.97301e-06
1.18454e-06
1.89263e-06
2.04166e-06
2.73572e-06
2.42405e-06
3.23083e-06
3.19752e-06
3.2142e-06
1.94492e-06
1.61196e-06
1.86876e-06
3.22435e-06
2.1114e-06
2.96917e-06
6.15288e-06
2.3097e-06
2.39729e-06
2.38029e-06
2.64508e-06
1.66557e-06
1.82377e-06
2.06583e-06
5.73271e-06
2.08467e-06
2.18324e-06
2.43522e-06
3.1188e-06
3.17316e-06
2.05447e-06
1.9592e-06
3.05718e-06
6.44327e-06
2.08796e-06
2.72615e-06
2.15709e-06
1.86812e-06
2.0028e-06
2.10999e-06
2.88994e-06
2.3222e-06
2.3979e-06
1.97629e-06
6.4127e-06
2.16225e-06
3.29198e-06
2.10223e-06
2.66566e-06
1.94415e-06
2.91865e-06
2.58116e-06
2.11703e-06
2.09534e-06
1.91719e-06
7.06046e-06
2.25203e-06
2.06378e-06
6.28159e-06
2.12147e-06
2.90924e-06
2.12921e-06
6.4487e-06
1.41701e-06
2.0682e-06
6.58062e-06
2.52584e-06
2.39732e-06
7.42191e-07
2.22368e-06
7.06751e-07
7.00657e-07
8.93749e-07
2.53536e-06
2.26535e-06
1.33607e-06
7.84725e-07
2.32303e-06
6.06694e-07
6.68276e-07
6.84307e-07
2.51242e-06
2.31629e-06
7.8367e-07
6.80839e-07
6.22692e-06
6.7471e-07
6.65305e-07
7.01158e-07
1.8232e-06
1.90695e-06
6.86722e-07
7.04792e-07
1.86445e-06
2.28572e-06
6.8045e-07
7.16005e-07
1.82373e-06
6.01079e-07
2.02791e-06
7.4579e-07
5.74423e-07
1.80052e-06
1.454e-06
2.2702e-06
1.80636e-06
2.15356e-06
1.79089e-06
1.79456e-06
6.8231e-07
2.24737e-06
1.45239e-06
1.79556e-06
6.97875e-07
6.24265e-07
6.62717e-07
1.44627e-06
1.40138e-06
2.15258e-06
1.82851e-06
1.3994e-06
1.43932e-06
2.19226e-06
6.97732e-07
1.77726e-06
1.79162e-06
6.54258e-07
7.3397e-07
2.34895e-06
7.10392e-07
6.56982e-07
6.26314e-07
2.18926e-06
6.12493e-07
6.03901e-07
5.92831e-07
5.12031e-07
5.11667e-07
4.9467e-07
4.97016e-07
4.96269e-07
5.33079e-07
4.94191e-07
4.97855e-07
4.86862e-07
4.90626e-07
4.94649e-07
4.94954e-07
4.91922e-07
4.89615e-07
4.96354e-07
4.95189e-07
4.82188e-07
1.10854e-06
5.3299e-07
5.44763e-07
5.36655e-07
5.15417e-07
5.01772e-07
5.53774e-07
5.53774e-07
5.53774e-07
5.53774e-07
5.53774e-07
5.53774e-07
5.50785e-07
5.50785e-07
7.45291e-07
7.11668e-07
4.9897e-07

NodalForce_(N) 3 343 double
-7.72392e-08 4.67489e-09 -5.42679e-09
-4.9491e-07 7.34033e-08 -1.76131e-07
0.000317151 3.30144e-05 0.000576979
-3.08912e-07 1.1223e-07 -1.61061e-07
3.19153e-07 5.25943e-07 -8.58886e-07
5.47719e-07 4.71743e-07 -9.96697e-07
-6.48623e-08 1.14539e-06 -2.43403e-06
-4.15954e-07 5.46466e-07 -1.18452e-06
6.78405e-07 6.96199e-07 -1.35588e-06
-2.04605e-08 2.40105e-07 -5.32245e-07
5.22613e-07 1.74686e-07 -2.87666e-07
1.46681e-06 7.79047e-07 -1.37437e-06
6.96959e-07 3.01669e-07 -4.18134e-07
6.19851e-07 1.10647e-07 -2.07872e-07
4.63297e-07 1.39621e-07 -2.968e-07
3.33728e-07 7.10514e-07 -1.66502e-06
-1.535e-07 4.95468e-07 -1.12897e-06
1.1952e-07 8.65792e-08 -1.86952e-07
0.000792152 0.000639268 0.000310851
-4.72933e-08 1.46043e-08 -4.91164e-08
-2.96726e-07 6.31121e-07 -1.18742e-06
5.7995e-07 1.63697e-06 -2.9377e-06
0.00174739 -0.000394897 0.000353543
-3.74878e-07 2.24491e-07 -3.4889e-07
-5.25228e-07 7.1958e-07 -1.27355e-06
-5.38477e-07 2.32986e-07 -5.70796e-07
4.05885e-08 9.28164e-09 -2.81214e-08
-8.16496e-08 2.11347e-07 -3.32138e-07
-3.15089e-07 2.02883e-08 -9.30208e-08
-5.62272e-07 1.61813e-08 -1.48703e-07
-7.90216e-07 1.55448e-07 -6.18944e-07
8.64773e-07 2.03286e-06 -4.58727e-06
1.44644e-06 1.48629e-06 -3.24464e-06
1.9419e-08 1.05879e-06 -2.32537e-06
-5.5219e-07 7.07249e-07 -1.48915e-06
-7.71083e-07 1.20168e-06 -2.62867e-06
-6.1523e-07 5.57441e-07 -1.1454e-06
-2.87033e-06 1.64867e-06 -3.73655e-06
3.142e-07 1.52039e-07 -3.13889e-07
8.03024e-07 2.96065e-07 -7.80842e-07
4.48225e-07 3.17969e-07 -4.06274e-07
4.54526e-07 5.77826e-07 -1.42303e-06
2.62062e-07 1.02985e-07 -2.08852e-07
-3.39689e-08 4.49368e-08 -8.20428e-08
-1.93877e-07 2.60169e-07 -5.12724e-07
0.00106046 8.4144e-06 -0.000345409
-1.02977e-07 3.17593e-08 -6.14138e-08
0.000359164 0.000590943 -0.000487517
3.04585e-07 7.26823e-08 -2.39174e-07
1.14752e-07 1.05842e-08 -1.99993e-08
3.85832e-07 2.78559e-07 -6.6281e-07
6.94325e-07 4.93073e-07 -1.2613e-06
-1.84701e-07 1.87966e-08 -1.52325e-07
2.00594e-08 5.12001e-08 -1.65904e-07
2.77322e-08 2.14952e-08 -6.8117e-08
4.76422e-07 8.63238e-07 -1.82625e-06
0.000827666 -0.000260223 3.16251e-05
-1.48489e-07 9.20651e-09 -2.20818e-08
0.00192857 -0.000594768 0.000672929
4.58137e-08 3.9147e-07 -8.43105e-07
3.34548e-07 5.41494e-08 -1.52595e-07
8.49494e-08 7.90163e-07 -1.4076e-06
-1.21859e-06 2.35421e-06 -4.21507e-06
-1.9347e-07 1.07533e-06 -2.11694e-06
1.6937e-07 3.13058e-07 -3.95753e-07
-5.41501e-08 8.51405e-09 -3.37496e-08
2.03107e-07 8.12022e-08 -7.92299e-08
9.24401e-07 5.38843e-07 -1.2567e-06
-3.601e-07 5.9603e-07 -1.27211e-06
2.52709e-07 7.53339e-07 -1.24901e-06
-1.94426e-07 4.39543e-08 -1.05959e-07
2.6733e-07 5.52923e-08 -9.76191e-08
5.50559e-08 8.48961e-08 -9.02806e-08
4.09192e-07 2.27131e-07 -6.33861e-07
-9.57275e-08 1.00359e-07 -1.9896e-07
0.00136447 -0.000299269 -0.000505936
-1.14768e-07 2.50822e-07 -5.11157e-07
-7.54343e-08 5.84864e-09 -1.27262e-08
4.95543e-07 3.22391e-07 -7.58393e-07
1.33637e-07 3.40207e-07 -7.73219e-07
1.02206e-07 1.74549e-07 -4.14054e-07
3.58735e-07 1.69183e-07 -3.82151e-07
-2.73494e-07 7.88819e-07 -1.68063e-06
-2.37159e-07 5.3614e-08 -1.85223e-07
0.00120886 0.0003418 0.000229688
-9.83644e-08 -3.64115e-09 -6.42695e-09
0.00121268 -0.000152245 -0.00027257
0.00177714 -0.00024801 -0.00049992
0.00104352 0.000799273 -0.000559369
-2.66781e-07 3.2022e-08 -8.94365e-08
1.45485e-07 8.68086e-09 -2.68375e-08
9.97199e-08 2.64865e-07 -6.55708e-07
4.5198e-07 1.34991e-07 -5.28488e-07
5.57477e-07 2.86333e-07 -5.53936e-07
2.8188e-06 2.33136e-06 -4.17389e-06
4.35864e-08 4.53168e-07 -7.0628e-07
1.37819e-08 6.79234e-07 -1.09751e-06
-9.21913e-08 4.1258e-07 -7.84569e-07
0.00179964 0.000818492 -3.87091e-05
-8.46666e-08 6.36061e-07 -1.35718e-06
-5.06443e-07 4.07125e-07 -6.89918e-07
-7.21981e-07 5.67595e-07 -1.18124e-06
-3.94887e-08 2.86732e-08 -4.64433e-08
-4.35693e-07 7.46837e-07 -1.51763e-06
-9.59835e-08 3.39302e-08 -5.10366e-08
-1.58349e-07 4.15498e-07 -6.8281e-07
-1.04193e-06 6.61614e-07 -1.42984e-06
5.83507e-07 7.87337e-07 -1.30282e-06
8.48808e-07 7.75535e-07 -1.26397e-06
7.14264e-08 2.51517e-09 -1.12716e-08
-8.47718e-07 3.10595e-07 -7.73025e-07
-1.32767e-06 4.49782e-07 -1.14011e-06
-1.11372e-06 4.35833e-07 -1.19536e-06
0.000642946 0.000388451 -0.000471414
-9.78387e-08 4.60194e-07 -8.18822e-07
1.05762e-07 3.05393e-08 -8.42103e-08
-3.87353e-07 3.45034e-07 -7.4016e-07
-5.92998e-07 9.92131e-07 -2.14491e-06
-9.32628e-07 3.25476e-07 -7.02371e-07
3.99931e-07 3.17094e-07 -4.76704e-07
4.1656e-07 9.45486e-07 -1.6819e-06
3.91886e-07 8.85131e-07 -1.76655e-06
9.03817e-08 2.05577e-08 -2.81719e-08
0.00145395 0.00016905 0.000413198
5.31477e-08 1.27041e-08 -3.96159e-09
-5.48443e-08 3.31766e-07 -7.1166e-07
-9.58794e-07 2.4602e-07 -6.34241e-07
0.00167256 0.000464392 -0.000792625
4.56547e-08 7.926e-09 -1.27224e-08
-6.29919e-07 2.54003e-07 -5.15106e-07
-2.20674e-08 2.4801e-07 -5.12684e-07
1.93726e-08 4.412e-07 -9.56048e-07
6.73776e-07 2.70321e-07 -4.89979e-07
6.00954e-07 3.26534e-07 -7.21218e-07
0.00120447 -0.000172502 0.000426872
2.22168e-09 5.93342e-10 -8.52749e-09
0.00144647 -0.000325412 0.000417747
-2.34522e-08 3.55402e-07 -5.87092e-07
-3.22532e-07 3.37701e-07 -7.33996e-07
-1.08264e-06 8.46541e-07 -1.8784e-06
8.22539e-07 6.49543e-07 -1.42788e-06
5.23882e-07 2.89581e-07 -5.09823e-07
3.33451e-07 3.00414e-07 -4.86188e-07
4.12247e-07 5.36185e-07 -9.44805e-07
0.00105569 0.000560086 -0.00077149
9.23816e-07 4.70296e-07 -7.2262e-07
6.27875e-08 1.33972e-07 -1.58803e-07
-1.57288e-06 1.47245e-06 -3.07141e-06
-3.55842e-07 6.09241e-07 -1.20962e-06
-3.2655e-08 5.56437e-08 -9.97905e-08
-2.58184e-07 5.96371e-08 -1.00136e-07
-1.47282e-09 2.46106e-09 -5.03405e-09
0.00229179 0.00071009 -1.21489e-05
4.72817e-08 2.57644e-07 -5.4031e-07
-4.44513e-07 2.49569e-07 -4.96334e-07
2.38258e-07 2.47831e-07 -5.49516e-07
0.00150186 9.96387e-05 -0.000681299
0.000959127 0.00083441 0.00179779
2.95224e-07 1.635e-07 -4.01052e-07
3.48768e-07 6.51035e-07 -1.25588e-06
1.46785e-07 8.47899e-08 -9.4318e-08
3.8885e-08 3.09426e-08 -7.42183e-08
-2.80083e-07 2.91743e-07 -5.12261e-07
1.82357e-07 8.37194e-08 -2.31261e-07
1.69503e-07 4.02717e-07 -8.68071e-07
2.71181e-07 2.74908e-07 -6.07192e-07
-5.08677e-07 3.39286e-07 -6.84054e-07
-3.20897e-07 3.10335e-08 -1.43743e-07
-6.86709e-07 2.54021e-07 -6.04557e-07
-4.177e-07 1.87781e-07 -4.0135e-07
-4.0911e-07 1.09834e-07 -3.07792e-07
-6.48805e-07 4.82739e-07 -1.1184e-06
-1.00528e-07 2.8026e-07 -4.59941e-07
2.7258e-07 4.97133e-08 -1.53108e-07
3.68048e-07 9.23135e-08 -3.11882e-07
1.62899e-07 4.27885e-08 -1.24806e-07
6.84012e-08 2.27866e-07 -4.89142e-07
1.74254e-07 5.62865e-08 -5.07381e-08
-3.05055e-07 5.13124e-07 -1.06167e-06
0.00183208 -9.84937e-05 0.000287769
4.98357e-07 6.35411e-07 -1.27978e-06
-6.66234e-07 4.76841e-07 -9.74243e-07
-3.90241e-07 6.66524e-07 -1.24739e-06
0.0014025 -0.000199431 -0.000301918
9.00549e-08 2.61052e-08 -6.0477e-08
4.46921e-07 2.901e-07 -4.55396e-07
8.0818e-07 5.19868e-07 -9.87743e-07
4.59133e-07 3.38181e-07 -6.94437e-07
-1.62382e-07 2.1459e-07 -3.91331e-07
-2.52898e-07 2.98214e-07 -6.46685e-07
-2.63155e-07 1.64866e-07 -2.96755e-07
-6.61325e-08 2.49231e-07 -4.94436e-07
1.87099e-07 2.08083e-08 -1.30249e-07
-3.52774e-07 7.94294e-08 -2.36152e-07
6.0307e-08 5.1373e-08 -4.49315e-08
1.13168e-07 6.53783e-08 -6.17848e-08
-3.56843e-07 4.04994e-07 -8.05679e-07
-6.4602e-07 1.35007e-07 -3.80126e-07
-9.01706e-08 4.04585e-07 -8.13828e-07
-4.66652e-07 1.75885e-07 -4.46338e-07
-5.70571e-07 3.57812e-07 -7.43996e-07
0.00154659 -0.000336577 -0.000111486
-5.36534e-08 9.33793e-09 -1.7377e-08
0.00134158 -0.000628046 4.73677e-05
-3.66155e-07 6.89368e-08 -1.82467e-07
-4.75277e-07 1.31319e-07 -2.60274e-07
-5.37024e-07 2.65632e-07 -7.01411e-07
-4.11235e-07 2.20491e-07 -4.85157e-07
1.399e-07 2.579e-07 -3.4423e-07
2.40222e-07 2.07079e-07 -2.727e-07
-5.37307e-08 6.17726e-09 -3.90425e-09
-3.48248e-07 3.2579e-07 -6.15367e-07
1.84581e-07 4.07572e-07 -8.32219e-07
-3.13139e-07 3.10087e-07 -6.11993e-07
4.3793e-07 1.72647e-07 -3.8022e-07
-2.48195e-08 4.38037e-08 -5.79329e-08
3.81451e-07 4.19895e-07 -7.80338e-07
-2.42112e-08 4.43045e-08 -1.33243e-07
-3.59434e-07 1.48286e-07 -3.57321e-07
-8.09152e-07 4.22628e-07 -9.7813e-07
-2.35391e-08 1.40262e-07 -2.81626e-07
8.3147e-08 5.17036e-07 -1.04599e-06
-3.1077e-07 1.26954e-07 -2.42016e-07
2.64737e-07 3.92263e-07 -6.08965e-07
-1.35244e-07 4.38702e-08 -6.72859e-08
0.00164526 0.000287633 0.000746125
2.25574e-07 7.65233e-08 -2.32286e-07
2.92435e-07 1.74733e-07 -2.41477e-07
-2.16584e-07 1.2637e-07 -3.0898e-07
-1.56072e-07 9.65485e-08 -1.53734e-07
1.39118e-07 1.27009e-07 -1.30238e-07
9.63019e-08 1.15172e-07 -3.12992e-07
0.00203056 -0.00141788 8.78434e-05
0.00186851 0.000706916 -0.00116649
-3.69437e-07 7.4696e-08 -2.70885e-07
-4.47568e-07 2.5888e-07 -6.31132e-07
8.27533e-09 1.23128e-07 -1.78058e-07
-7.95666e-08 3.87123e-07 -8.09247e-07
-1.35689e-07 1.13119e-07 -2.97294e-07
4.0399e-07 1.56926e-07 -4.24004e-07
-4.54311e-07 4.4679e-07 -9.34854e-07
0.000848405 0.000727527 3.12949e-05
-6.38246e-07 3.0179e-07 -6.97594e-07
-3.91934e-08 3.57988e-08 -4.62543e-08
0.00089959 -2.47073e-05 -0.000976022
7.13988e-08 5.78745e-08 -1.25252e-07
0.00208452 -0.00113579 0.000144275
-5.39637e-07 4.04129e-07 -8.88185e-07
-3.70796e-07 2.43266e-07 -5.32452e-07
0.000775102 -0.00107249 0.000131299
-2.92459e-07 1.31161e-07 -2.82794e-07
0.000759196 0.00120295 -5.38021e-05
1.43136e-08 1.54821e-07 -2.60336e-07
-4.08891e-08 1.3248e-07 -2.70713e-07
-4.18545e-07 6.41192e-08 -2.32311e-07
6.499e-08 4.71811e-07 -9.05994e-07
-6.32388e-08 6.76724e-08 -1.00544e-07
0.000659016 -0.000172922 0.000796207
9.34129e-08 1.51418e-07 -3.04547e-07
1.45843e-07 5.46773e-08 -8.6759e-08
1.11358e-07 1.539e-07 -2.57906e-07
0.000411135 -0.000449806 0.00103177
-5.30022e-07 2.74904e-07 -5.8946e-07
-5.21571e-07 3.48749e-07 -7.52386e-07
6.51635e-08 1.58243e-07 -2.67303e-07
-1.67842e-07 1.32926e-07 -2.79852e-07
-3.79147e-08 1.15258e-08 -7.10237e-09
0.000986767 0.000553376 2.21839e-05
0.000656219 -0.000985195 0.000195381
0.000695732 -0.000984159 0.000122673
-5.74569e-07 2.60195e-07 -5.93446e-07
-1.24764e-07 1.14184e-07 -2.35881e-07
-2.22412e-07 8.70981e-08 -1.33447e-07
1.1754e-07 1.394e-07 -3.02379e-07
0.000782407 0.00046929 0.000153988
0.000412609 0.00035685 -0.000521114
4.47654e-08 1.13131e-08 -8.0864e-09
6.94007e-08 7.6674e-09 -9.87498e-09
7.10052e-08 2.86929e-07 -6.02983e-07
4.42618e-08 1.01247e-08 -1.41839e-08
0.000620976 -0.00019054 -0.000306121
1.04937e-07 3.39154e-07 -7.24252e-07
-2.01863e-07 6.33876e-08 -1.41965e-07
-2.25987e-07 5.00187e-07 -8.75476e-07
1.1224e-08 3.43416e-09 -1.6452e-08
2.08744e-07 2.80947e-07 -5.98805e-07
1.36794e-07 1.36396e-07 -2.81052e-07
0.000376623 -0.000436351 0.000777128