# vtk DataFile Version 4.2
vtk output
ASCII
DATASET UNSTRUCTURED_GRID

POINTS 343 double
0.00161156 0.00421628 -2.06501e-05
0.0031169 0.00502411 0.00213513
0 0.00419538 0.00112517
0.00277474 0.00199122 0.00190649
0.00744795 0.00251197 0.0049383
0.00744487 0.00393283 0.00630272
0.0109759 0.0049304 0.00486062
0.00896154 0.0049756 0.00357954
0.00984805 0.00342815 0.00678825
0.00718043 0.00509113 0.00490898
0.00602222 0.00120276 0.00992015
0.00760809 0.00218762 0.00780594
0.00604166 7.84453e-05 0.00823992
0.00289107 0.00204025 0.00799657
0.00616969 0.00261789 0.00991781
0.0100064 0.00658541 0.00681862
0.00922704 0.00631032 0.00506655
0.00324987 0.00222781 0.00510465
0 0.00143586 0.00417514
0.00228991 0.00349622 0.00400766
0.00985266 0.00333437 0.00303918
0.0111661 0.00237546 0.00492317
0 0.00270918 0.00154168
0.00599684 0.00151429 -7.25279e-05
0.0072187 0.0022904 0.00210791
0.00570476 0.00360561 0.00153217
0.00193548 2.44173e-05 0.00403547
0.0060368 7.8964e-05 0.00161278
0.00377228 0.00700244 -4.63169e-05
0.0027778 0.00808956 0.00190876
0.00587747 0.00632787 0.00157174
0.0115078 0.00814419 0.00784761
0.0114676 0.00497801 0.00787324
0.0120694 0.00624983 0.00579371
0.0143704 0.00902073 0.00401384
0.0108969 0.0077865 0.00482613
0.0123135 0.0101509 0.00401265
0.011475 0.00813069 0.00187468
0.00508668 0.00310523 0.00689511
0.00638454 0.00374878 0.00824083
0.0056068 0.00167901 0.00589815
0.00719023 0.00776534 0.00758382
0.00285127 0.00804553 0.00795334
0.00405211 0.0100503 0.00707516
0.00562179 0.00847461 0.00588586
0 0.00695361 0.00262895
0.00236176 0.00627053 0.0040575
0 0.0040177 0.00850214
0.0033223 0.00502926 0.00761926
0.00205601 0.00420087 0.00997383
0.0103169 0.00725949 0.00986189
0.00879884 0.00609148 0.00830265
0.00294163 0.00798038 0.00470391
0.00436941 0.00700153 0.00641238
0.00227637 0.00610837 0.00589678
0.0143674 0.00598681 0.00812364
0 0.00718191 0.00711644
0.00227339 0.00580403 -2.89332e-05
0 0.00577432 0.00158701
0.0143681 0.00735761 0.00692678
0.00412126 0.00340382 0.00994511
0.0143655 0.00162532 0.00399652
0.0115909 0.00211268 0.00183748
0.0120859 0.00367603 0.00384743
0.00536787 0.00172324 0.00406008
0.00216024 0.0100277 0.00578707
0.00404935 5.27385e-05 0.00707681
0.00879474 0.00429358 0.0082612
0.014367 0.00745176 0.00401666
0.0123074 0.000158637 0.00401412
0.00481243 0.00293635 -5.84477e-05
0.0038846 0.00159133 0.0099485
0.0040642 5.31715e-05 0.00278043
0.00689978 0.00528797 0.007465
0.00454352 0.00320781 0.00310903
0 0.00849157 0.00581511
0.00700452 0.00376683 0.00369768
0.00220893 0.00273785 -2.80164e-05
0.00833127 0.0084283 0.0098882
0.00859249 0.0101054 0.00839293
0.00604545 0.0100747 0.0082387
0.00576653 0.00857528 0.00992255
0.0143687 0.0086629 0.00562888
0.00452021 0.00689462 0.00309219
0 0.00748929 0.00137438
0.00196807 0.007515 -2.51797e-05
0 0.00287343 0.00335182
0 0.00580816 0.00831736
0 0.00429792 0.00253898
0.00364286 0.00434535 -4.47034e-05
0.00205553 0.00584569 0.00997373
0.00743966 0.00657001 0.00630485
0.00517513 0.00657817 0.00816654
0.00998844 0.00275535 0.00986664
0.011533 0.00210687 0.00788473
0.0100199 0.000130021 0.00295758
0.00865243 0.00177687 0.00350466
0.0143655 0.00305897 0.00317479
0 0.00140616 0.00256446
0.00915966 0.0083417 0.00630327
0.00836415 0.00154498 -0.000100606
0.00867757 0.003664 0.00149662
0.00452684 0.0100562 0.00576631
0.0123049 0.010151 0.00567454
0.00367994 0.00145431 -4.50544e-05
0.00859004 0.000112106 0.00138849
0.00902796 0.0084004 0.00350329
0.0122995 0.000158552 0.00567592
0.00891877 0.00178851 0.00625141
0.00201301 0.00258963 0.00997426
0.0102342 0.0073099 -0.000124134
0.00742512 0.00778376 0.00207563
0.00854329 0.00620191 0.00149647
0 0.00686719 0.00578184
0.014368 0.0015963 0.00239049
0.00254455 0.00364308 0.00637536
0.0143715 0.00865792 0.00244757
0.0120923 0.00634057 0.00398119
0.00859565 0.0101061 0.00138671
0.0100168 0.000129778 0.00679837
0.0143651 0.0016245 0.00563439
0.0120698 0.0037271 0.00590589
0.00216004 2.72593e-05 0.00578788
0 0.0013659 0.00748679
0.00196045 2.48256e-05 0.00750448
0.0143666 0.00704427 0.00559507
0.00836163 0.00859633 -0.000102134
0 0.0075208 0.00859127
0.00195577 0.00751158 0.00997502
0.00607629 0.00828211 0.00355019
0.0123538 0.0101502 0.00735002
0.0143715 0.0088009 0.0073346
0.00829412 0.00169406 0.00988944
0.0104328 0.00432019 0.00986028
0 0.0057735 0.00666667
0.0019611 0.0100251 0.00750353
0 0.00863025 0.00752641
0.0123479 0.000160686 0.00235532
0.014368 0.00713173 0.00245339
0.0121627 0.0064939 0.00201379
0.012234 0.00597659 0.00983691
0.0107644 0.0015133 0.00985665
0.0123481 0.000160296 0.00735202
0.0143672 0.00155495 0.00729666
0 0.00143551 0.00581971
0.00858657 0.000111524 0.00839412
0.00605014 7.89308e-05 0.00332374
0.0114084 0.00485288 0.00189491
0.0143663 0.0044807 0.00236505
0.00607018 0.010075 0.00658782
0.00406578 0.0100502 0.00277899
0.00188053 2.39759e-05 0.00239424
0 0.00727418 0.00419576
0.0143659 0.00595269 0.00647777
0.0100258 0.0101232 0.00295556
0.0107925 0.00876881 0.00985528
0 0.00574334 0.00336387
0 0.0043297 0.00416652
0.00987183 0.00590772 0.00986793
0.0143647 0.00320709 0.00672763
0.0060659 7.90312e-05 0.00658955
0.00355281 0.0100441 0.00856511
0.0107646 0.00150666 -0.000129025
0.00829513 0.00677049 0.00988886
0.014371 0.00769542 0.00839587
0.0123781 0.00770532 0.00983434
0.0099417 0.003151 -0.000119337
0.00482975 0.00580601 -5.8875e-05
0.0108267 0.0087647 -0.000130819
0.010809 0.0101325 0.00125414
0.00831231 0.00697208 -0.000101086
0.0100268 0.00649739 0.00290814
0.0108034 0.000141496 0.00125536
0.00413707 0.00505109 0.00994502
0.00621688 0.00591184 0.00991675
0.00621566 0.00424512 0.00991694
0.0108071 0.0101311 0.00847337
0.00355019 4.59652e-05 0.00856644
0.0143661 0.00592343 0.00318689
0 0.00302218 0.00691532
0.0143668 0.00420115 0.00830724
0.0122271 0.00417468 -0.00014584
0.0143689 0.00289528 0.00137277
0 0.00244495 0.00857025
0.00350671 0.00861423 0.00995342
0.0108011 0.00014076 0.00847493
0.0122022 0.00277982 0.00983729
0.0127244 0.00435523 0.00982964
0.00814858 0.0101003 0.00572835
0.00745098 0.00767722 0.00493725
0.00810937 0.0100997 0.00411149
0.0100225 0.010123 0.00679688
0.00433607 0.00697046 0.00994222
0.00598502 0.00440749 -7.24045e-05
0.0040677 5.27966e-05 0.00435331
0.00452379 5.90079e-05 0.00576854
0.01437 0.00437891 0.000957328
0.0052241 0.0084037 0.0015223
0.0143648 0.00451184 0.00398682
0.00958535 0.00589466 -0.000116169
0.0123536 0.0101511 0.00235382
0 0.00848692 0.00262374
0.00193547 0.0100251 0.00403465
0 0.00885053 0.00419359
0.006026 0.0089262 -7.39677e-05
0.00604037 0.0100746 0.00161143
0.00718217 0.0048839 0.0022894
0.0103804 0.00465438 -0.000124776
0.00810363 0.000105385 0.00411402
0.00814328 0.00010594 0.00573037
0.00188015 0.0100242 0.00239329
0.0123247 0.00260515 -0.000147307
0.0143649 0.00470386 0.00702987
0.0102287 0.0101257 0.00486943
0.0082499 0.00346907 0.00988962
0.00352646 4.63438e-05 0.00131221
0.0143682 0.0026318 0.00837505
0.00343472 0.00483529 0.00495597
0.00838437 0.00443808 -0.000100998
0.0119627 0.00595818 -0.00014277
0.00787308 0.0100969 0.00711795
0.0143639 0.00451216 0.00564828
0.00776522 0.0100957 0.00267738
0.0102231 0.00013236 0.00487109
0.00406946 0.0100504 0.00435127
0 0.00452174 0.00721958
0.00649246 0.00730135 0.00991291
0.00786777 0.00010234 0.00711914
0.00517225 0.00514055 0.00353017
0.00610625 0.0100751 0.00492922
0.00610189 7.97613e-05 0.0049318
0.00526865 0.00528415 0.00610749
0 0.005744 0.00499998
0 0.00433013 0.00583333
0.00718547 0.00583615 -8.70741e-05
0.00716151 0.00643043 0.00346297
0.00775976 0.000101062 0.00267928
0.0143652 0.00592276 0.00481698
0.00529766 0.006476 0.00477614
0.00825145 0.00510391 0.0098895
0.0143697 0.00595349 0.00141735
0 0.00666667 0
0.0123582 0.00767375 -0.000147678
0.0047858 6.32934e-05 -5.81165e-05
0 0.01 0.00666667
0.00718458 0.0100876 0.00990389
0 0.00288419 0.00499914
0.0143719 0.00766518 0.00120489
0.0143751 0.00684364 -0.000167018
0 0.005 0.01
0.00718299 0.0029777 -8.65857e-05
0 0.005 0
0.0143718 0.000193653 0.00315729
0.014378 0.010166 0.00647684
0.00602817 0.00735089 -7.35882e-05
0.0143645 0.0030699 0.0048169
0.00718421 9.49531e-05 -8.70509e-05
0 0 0.00666667
0.00545254 0.00368673 0.0051569
0.00717987 9.32085e-05 0.00990511
0.014371 0.000193102 0.00647907
0 0 0.005
0.0126317 0.0101532 0.0010675
0.0143763 0.00895071 0.00105118
0.0143706 0.000193059 0.00481762
0.0143742 0.0051818 -0.000165845
0.00174773 0.00124261 -2.2162e-05
0 0.00122008 0.00122008
0 0.00333333 0.01
0 0.00666667 0.01
0.0126313 0.00893413 -0.000150949
0.0143783 0.0101655 0.00315477
0.00605397 0.0100745 0.00332155
0.0143757 0.00684313 0.00979963
0 0.00333333 0
0 0.00122008 0.00877992
0.00174636 2.21507e-05 0.0087582
0.00174618 0.00124213 0.00997766
0.0126293 0.0101519 0.00861119
0.00174697 0.00880208 0.00997754
0 0.00877992 0.00877992
0.014375 0.00894941 0.00858419
0.00958974 0.0101175 -0.000117651
0.0143719 0.00141155 0.00105127
0.0017473 0.0100221 0.00875749
0.0126289 0.00893212 0.00983
0.0143746 0.0051804 0.00980024
0 0 0.00333333
0.00958351 0.000126256 -0.000115691
0.0126254 0.000166166 0.00106793
0.00173553 2.23257e-05 0.0011897
0 0.00877992 0.00122008
0.00174676 0.00880266 -2.24301e-05
0.00173494 0.0100221 0.00118883
0.0143707 0.00141006 0.00858499
0.0126247 0.0013847 0.00983114
0.00957896 0.000124615 0.00987294
0.0126271 0.00138652 -0.000150438
0.0126235 0.000164999 0.00861287
0.0143745 0.00351923 -0.000165534
0.00478538 0.0100585 0.00993598
0.00352733 0.0100438 0.00131108
0.00958521 0.0101163 0.00987182
0.0143736 0.00351719 0.00980009
0 0.01 0.005
0.0037652 0.00853496 -4.65465e-05
0.0143773 0.0101656 0.00481717
0 0.01 0.00333333
0 0.00166667 0
0.0143746 0.000193534 0.00149617
0 0.00166667 0.01
0 0.00833333 0
0.014379 0.00850648 -0.000167617
0.0143734 0.000192752 0.0081409
0.0143815 0.0101674 0.00149595
0.0143802 0.0101662 0.0081391
0.00238887 0.0100293 0.00996881
0 0.01 0.00833333
0.0119919 0.0101454 -0.000144704
0.0119854 0.000158808 -0.000143801
0.0119825 0.000156947 0.00984065
0.0119886 0.0101436 0.00983931
0 0 0.00833333
0.0143788 0.00850353 0.00980056
0.00238929 3.16426e-05 -2.98584e-05
0 0 0.00166667
0.00478786 0.0100594 -5.9183e-05
0.0143749 0.00185613 0.00980135
0.0143762 0.00185817 -0.000166352
0.00238686 3.06921e-05 0.00996947
0.00238891 0.0100299 -3.04083e-05
0 0.01 0.00166667
0.014384 0.0101679 0.00980194
0 0 0.01
0.0143857 0.0101684 -0.000168922
0.0143777 0.000191574 0.00980396
0 0.01 0.01
0.0143795 0.000193301 -0.000167946
0 0.01 0
0 0 0
0.00718855 0.0100885 -8.87124e-05
0.00478216 6.19697e-05 0.00993679
0 0.00833333 0.01

CELLS 343 686
1 0
1 1
1 2
1 3
1 4
1 5
1 6
1 7
1 8
1 9
1 10
1 11
1 12
1 13
1 14
1 15
1 16
1 17
1 18
1 19
1 20
1 21
1 22
1 23
1 24
1 25
1 26
1 27
1 28
1 29
1 30
1 31
1 32
1 33
1 34
1 35
1 36
1 37
1 38
1 39
1 40
1 41
1 42
1 43
1 44
1 45
1 46
1 47
1 48
1 49
1 50
1 51
1 52
1 53
1 54
1 55
1 56
1 57
1 58
1 59
1 60
1 61
1 62
1 63
1 64
1 65
1 66
1 67
1 68
1 69
1 70
1 71
1 72
1 73
1 74
1 75
1 76
1 77
1 78
1 79
1 80
1 81
1 82
1 83
1 84
1 85
1 86
1 87
1 88
1 89
1 90
1 91
1 92
1 93
1 94
1 95
1 96
1 97
1 98
1 99
1 100
1 101
1 102
1 103
1 104
1 105
1 106
1 107
1 108
1 109
1 110
1 111
1 112
1 113
1 114
1 115
1 116
1 117
1 118
1 119
1 120
1 121
1 122
1 123
1 124
1 125
1 126
1 127
1 128
1 129
1 130
1 131
1 132
1 133
1 134
1 135
1 136
1 137
1 138
1 139
1 140
1 141
1 142
1 143
1 144
1 145
1 146
1 147
1 148
1 149
1 150
1 151
1 152
1 153
1 154
1 155
1 156
1 157
1 158
1 159
1 160
1 161
1 162
1 163
1 164
1 165
1 166
1 167
1 168
1 169
1 170
1 171
1 172
1 173
1 174
1 175
1 176
1 177
1 178
1 179
1 180
1 181
1 182
1 183
1 184
1 185
1 186
1 187
1 188
1 189
1 190
1 191
1 192
1 193
1 194
1 195
1 196
1 197
1 198
1 199
1 200
1 201
1 202
1 203
1 204
1 205
1 206
1 207
1 208
1 209
1 210
1 211
1 212
1 213
1 214
1 215
1 216
1 217
1 218
1 219
1 220
1 221
1 222
1 223
1 224
1 225
1 226
1 227
1 228
1 229
1 230
1 231
1 232
1 233
1 234
1 235
1 236
1 237
1 238
1 239
1 240
1 241
1 242
1 243
1 244
1 245
1 246
1 247
1 248
1 249
1 250
1 251
1 252
1 253
1 254
1 255
1 256
1 257
1 258
1 259
1 260
1 261
1 262
1 263
1 264
1 265
1 266
1 267
1 268
1 269
1 270
1 271
1 272
1 273
1 274
1 275
1 276
1 277
1 278
1 279
1 280
1 281
1 282
1 283
1 284
1 285
1 286
1 287
1 288
1 289
1 290
1 291
1 292
1 293
1 294
1 295
1 296
1 297
1 298
1 299
1 300
1 301
1 302
1 303
1 304
1 305
1 306
1 307
1 308
1 309
1 310
1 311
1 312
1 313
1 314
1 315
1 316
1 317
1 318
1 319
1 320
1 321
1 322
1 323
1 324
1 325
1 326
1 327
1 328
1 329
1 330
1 331
1 332
1 333
1 334
1 335
1 336
1 337
1 338
1 339
1 340
1 341
1 342

CELL_TYPES 343
1
1
1
1
1
1
1
1
1
1
1
1
1
1
1
1
1
1
1
1
1
1
1
1
1
1
1
1
1
1
1
1
1
1
1
1
1
1
1
1
1
1
1
1
1
1
1
1
1
1
1
1
1
1
1
1
1
1
1
1
1
1
1
1
1
1
1
1
1
1
1
1
1
1
1
1
1
1
1
1
1
1
1
1
1
1
1
1
1
1
1
1
1
1
1
1
1
1
1
1
1
1
1
1
1
1
1
1
1
1
1
1
1
1
1
1
1
1
1
1
1
1
1
1
1
1
1
1
1
1
1
1
1
1
1
1
1
1
1
1
1
1
1
1
1
1
1
1
1
1
1
1
1
1
1
1
1
1
1
1
1
1
1
1
1
1
1
1
1
1
1
1
1
1
1
1
1
1
1
1
1
1
1
1
1
1
1
1
1
1
1
1
1
1
1
1
1
1
1
1
1
1
1
1
1
1
1
1
1
1
1
1
1
1
1
1
1
1
1
1
1
1
1
1
1
1
1
1
1
1
1
1
1
1
1
1
1
1
1
1
1
1
1
1
1
1
1
1
1
1
1
1
1
1
1
1
1
1
1
1
1
1
1
1
1
1
1
1
1
1
1
1
1
1
1
1
1
1
1
1
1
1
1
1
1
1
1
1
1
1
1
1
1
1
1
1
1
1
1
1
1
1
1
1
1
1
1
1
1
1
1
1
1
1
1
1
1
1
1
1
1
1
1
1
1
1
1
1
1
1
1
1
1
1
1
1
1
1
1
1
1
1
1

POINT_DATA 343
FIELD FieldData 8

NodeID_(#) 1 343 int
0
1
2
3
4
5
6
7
8
9
10
11
12
13
14
15
16
17
18
19
20
21
22
23
24
25
26
27
28
29
30
31
32
33
34
35
36
37
38
39
40
41
42
43
44
45
46
47
48
49
50
51
52
53
54
55
56
57
58
59
60
61
62
63
64
65
66
67
68
69
70
71
72
73
74
75
76
77
78
79
80
81
82
83
84
85
86
87
88
89
90
91
92
93
94
95
96
97
98
99
100
101
102
103
104
105
106
107
108
109
110
111
112
113
114
115
116
117
118
119
120
121
122
123
124
125
126
127
128
129
130
131
132
133
134
135
136
137
138
139
140
141
142
143
144
145
146
147
148
149
150
151
152
153
154
155
156
157
158
159
160
161
162
163
164
165
166
167
168
169
170
171
172
173
174
175
176
177
178
179
180
181
182
183
184
185
186
187
188
189
190
191
192
193
194
195
196
197
198
199
200
201
202
203
204
205
206
207
208
209
210
211
212
213
214
215
216
217
218
219
220
221
222
223
224
225
226
227
228
229
230
231
232
233
234
235
236
237
238
239
240
241
242
243
244
245
246
247
248
249
250
251
252
253
254
255
256
257
258
259
260
261
262
263
264
265
266
267
268
269
270
271
272
273
274
275
276
277
278
279
280
281
282
283
284
285
286
287
288
289
290
291
292
293
294
295
296
297
298
299
300
301
302
303
304
305
306
307
308
309
310
311
312
313
314
315
316
317
318
319
320
321
322
323
324
325
326
327
328
329
330
331
332
333
334
335
336
337
338
339
340
341
342

Component_(#) 1 343 int
0
0
0
0
0
0
0
0
0
0
0
0
0
0
0
0
0
0
0
0
0
0
0
0
0
0
0
0
0
0
0
0
0
0
0
0
0
0
0
0
0
0
0
0
0
0
0
0
0
0
0
0
0
0
0
0
0
0
0
0
0
0
0
0
0
0
0
0
0
0
0
0
0
0
0
0
0
0
0
0
0
0
0
0
0
0
0
0
0
0
0
0
0
0
0
0
0
0
0
0
0
0
0
0
0
0
0
0
0
0
0
0
0
0
0
0
0
0
0
0
0
0
0
0
0
0
0
0
0
0
0
0
0
0
0
0
0
0
0
0
0
0
0
0
0
0
0
0
0
0
0
0
0
0
0
0
0
0
0
0
0
0
0
0
0
0
0
0
0
0
0
0
0
0
0
0
0
0
0
0
0
0
0
0
0
0
0
0
0
0
0
0
0
0
0
0
0
0
0
0
0
0
0
0
0
0
0
0
0
0
0
0
0
0
0
0
0
0
0
0
0
0
0
0
0
0
0
0
0
0
0
0
0
0
0
0
0
0
0
0
0
0
0
0
0
0
0
0
0
0
0
0
0
0
0
0
0
0
0
0
0
0
0
0
0
0
0
0
0
0
0
0
0
0
0
0
0
0
0
0
0
0
0
0
0
0
0
0
0
0
0
0
0
0
0
0
0
0
0
0
0
0
0
0
0
0
0
0
0
0
0
0
0
0
0
0
0
0
0
0
0
0
0
0
0
0
0
0
0
0
0
0
0
0
0
0
0
0
0
0
0
0
0

NodalMass_(kg) 1 343 double
3.15563e-06
1.41304e-05
2.20912e-06
1.71484e-05
8.42e-06
9.09306e-06
1.01179e-05
7.52198e-06
6.81096e-06
5.58223e-06
3.10888e-06
1.07575e-05
4.87011e-06
1.64955e-05
3.0246e-06
8.05984e-06
6.703e-06
1.0877e-05
4.18978e-06
8.16106e-06
6.14143e-06
1.17902e-05
2.23114e-06
4.25176e-06
1.09915e-05
7.41467e-06
4.21871e-06
3.92484e-06
3.08766e-06
1.31268e-05
7.72627e-06
1.65404e-05
1.19037e-05
7.97564e-06
3.81683e-06
1.11001e-05
3.81317e-06
1.39137e-05
6.37414e-06
8.00975e-06
7.6712e-06
1.21135e-05
1.6399e-05
2.78633e-06
8.93599e-06
2.58087e-06
7.57362e-06
4.23241e-06
1.31286e-05
3.80168e-06
2.7746e-06
7.16776e-06
1.21307e-05
5.11765e-06
8.19728e-06
4.58094e-06
2.79503e-06
3.26126e-06
4.12443e-06
2.11915e-06
3.35177e-06
3.61669e-06
1.56838e-05
7.33679e-06
8.24695e-06
5.00369e-06
2.82625e-06
7.20276e-06
3.26815e-06
4.18751e-06
2.02785e-06
2.42152e-06
3.11835e-06
5.97459e-06
5.87101e-06
4.09374e-06
5.45463e-06
2.28825e-06
4.49759e-06
4.38192e-06
4.50892e-06
4.39234e-06
4.27273e-06
5.32031e-06
1.53201e-06
2.38869e-06
2.02885e-06
4.38798e-06
3.17972e-06
3.14298e-06
4.61567e-06
5.87645e-06
8.18088e-06
2.48341e-06
1.53815e-05
3.49683e-06
7.35227e-06
2.01314e-06
2.0408e-06
7.98183e-06
4.41293e-06
7.1389e-06
1.20123e-06
5.03343e-06
1.61257e-06
4.12601e-06
8.73748e-06
4.37849e-06
7.97173e-06
2.13557e-06
3.38137e-06
9.48623e-06
7.40262e-06
1.80226e-06
2.10222e-06
7.98889e-06
1.87983e-06
7.44814e-06
4.19782e-06
2.37156e-06
4.31705e-06
6.06441e-06
4.30905e-06
2.16843e-06
1.8986e-06
1.81294e-06
3.89762e-06
2.44299e-06
1.65628e-06
8.01374e-06
1.64513e-06
2.3931e-06
3.01363e-06
2.99431e-06
1.36541e-06
1.87293e-06
2.09622e-06
1.94762e-06
1.87618e-06
6.37913e-06
4.58628e-06
2.02767e-06
1.61999e-06
2.41284e-06
3.8865e-06
4.44973e-06
2.29839e-06
1.17349e-05
3.11811e-06
1.354e-06
3.45063e-06
1.81846e-06
2.9382e-06
1.37381e-06
2.41464e-06
2.10451e-06
2.63927e-06
2.14166e-06
1.7943e-06
3.19976e-06
1.36989e-06
2.43489e-06
2.08158e-06
1.3601e-06
2.17203e-06
1.89924e-06
3.16996e-06
2.6119e-06
2.37677e-06
1.60225e-06
1.90684e-06
5.49206e-06
1.87878e-06
3.14313e-06
2.97301e-06
1.18454e-06
1.89263e-06
2.04166e-06
2.73572e-06
2.42405e-06
3.23083e-06
3.19752e-06
3.2142e-06
1.94492e-06
1.61196e-06
1.86876e-06
3.22435e-06
2.1114e-06
2.96917e-06
6.15288e-06
2.3097e-06
2.39729e-06
2.38029e-06
2.64508e-06
1.66557e-06
1.82377e-06
2.06583e-06
5.73271e-06
2.08467e-06
2.18324e-06
2.43522e-06
3.1188e-06
3.17316e-06
2.05447e-06
1.9592e-06
3.05718e-06
6.44327e-06
2.08796e-06
2.72615e-06
2.15709e-06
1.86812e-06
2.0028e-06
2.10999e-06
2.88994e-06
2.3222e-06
2.3979e-06
1.97629e-06
6.4127e-06
2.16225e-06
3.29198e-06
2.10223e-06
2.66566e-06
1.94415e-06
2.91865e-06
2.58116e-06
2.11703e-06
2.09534e-06
1.91719e-06
7.06046e-06
2.25203e-06
2.06378e-06
6.28159e-06
2.12147e-06
2.90924e-06
2.12921e-06
6.4487e-06
1.41701e-06
2.0682e-06
6.58062e-06
2.52584e-06
2.39732e-06
7.42191e-07
2.22368e-06
7.06751e-07
7.00657e-07
8.93749e-07
2.53536e-06
2.26535e-06
1.33607e-06
7.84725e-07
2.32303e-06
6.06694e-07
6.68276e-07
6.84307e-07
2.51242e-06
2.31629e-06
7.8367e-07
6.80839e-07
6.22692e-06
6.7471e-07
6.65305e-07
7.01158e-07
1.8232e-06
1.90695e-06
6.86722e-07
7.04792e-07
1.86445e-06
2.28572e-06
6.8045e-07
7.16005e-07
1.82373e-06
6.01079e-07
2.02791e-06
7.4579e-07
5.74423e-07
1.80052e-06
1.454e-06
2.2702e-06
1.80636e-06
2.15356e-06
1.79089e-06
1.79456e-06
6.8231e-07
2.24737e-06
1.45239e-06
1.79556e-06
6.97875e-07
6.24265e-07
6.62717e-07
1.44627e-06
1.40138e-06
2.15258e-06
1.82851e-06
1.3994e-06
1.43932e-06
2.19226e-06
6.97732e-07
1.77726e-06
1.79162e-06
6.54258e-07
7.3397e-07
2.34895e-06
7.10392e-07
6.56982e-07
6.26314e-07
2.18926e-06
6.12493e-07
6.03901e-07
5.92831e-07
5.12031e-07
5.11667e-07
4.9467e-07
4.97016e-07
4.96269e-07
5.33079e-07
4.94191e-07
4.97855e-07
4.86862e-07
4.90626e-07
4.94649e-07
4.94954e-07
4.91922e-07
4.89615e-07
4.96354e-07
4.95189e-07
4.82188e-07
1.10854e-06
5.3299e-07
5.44763e-07
5.36655e-07
5.15417e-07
5.01772e-07
5.53774e-07
5.53774e-07
5.53774e-07
5.53774e-07
5.53774e-07
5.53774e-07
5.50785e-07
5.50785e-07
7.45291e-07
7.11668e-07
4.9897e-07

NodalForce_(N) 3 343 double
2.42046e-07 -2.3424e-08 1.2576e-08
1.70046e-06 -3.65935e-07 5.19457e-07
0.000182202 -1.45774e-05 0.000577699
8.8687e-07 -4.32255e-07 4.79567e-07
-8.92454e-07 -1.93744e-06 2.53364e-06
-1.39637e-06 -1.87575e-06 2.95396e-06
6.34648e-07 -4.44471e-06 7.07748e-06
1.49864e-06 -2.19534e-06 3.43549e-06
-1.8193e-06 -2.59975e-06 3.99167e-06
2.64149e-07 -1.00976e-06 1.56752e-06
-1.56071e-06 -5.90685e-07 8.43224e-07
-4.26849e-06 -2.77785e-06 4.0604e-06
-2.13014e-06 -9.67673e-07 1.23099e-06
-1.89658e-06 -4.17424e-07 6.31671e-07
-1.34726e-06 -5.12163e-07 8.69077e-07
-4.07568e-07 -2.87365e-06 4.87991e-06
8.58312e-07 -2.03823e-06 3.29657e-06
-3.7594e-07 -3.59666e-07 5.54656e-07
0.000866888 0.000574342 0.000421246
1.72521e-07 -7.62727e-08 1.38383e-07
9.56252e-07 -2.34952e-06 3.42052e-06
-1.59273e-06 -5.88036e-06 8.5516e-06
0.00179931 -0.000260345 0.000406475
1.03547e-06 -7.71097e-07 9.5708e-07
1.50496e-06 -2.57713e-06 3.65832e-06
1.6464e-06 -9.30553e-07 1.62495e-06
-1.47131e-07 -2.04491e-08 8.47288e-08
1.63193e-07 -6.89766e-07 9.47801e-07
1.01652e-06 -1.13236e-07 2.51314e-07
2.09917e-06 -1.40294e-07 4.34659e-07
2.63543e-06 -7.576e-07 1.75735e-06
-8.70774e-07 -7.95249e-06 1.34035e-05
-3.61206e-06 -5.71584e-06 9.52045e-06
4.7576e-07 -4.13891e-06 6.75855e-06
1.98546e-06 -2.68426e-06 4.2764e-06
3.22317e-06 -4.77404e-06 7.62203e-06
2.25474e-06 -2.08092e-06 3.29136e-06
9.54739e-06 -6.54057e-06 1.06209e-05
-8.8011e-07 -6.17513e-07 9.305e-07
-2.22743e-06 -1.19673e-06 2.30009e-06
-1.3504e-06 -1.11341e-06 1.21659e-06
-4.23967e-07 -2.36657e-06 4.16431e-06
-2.52435e-07 -4.35754e-07 5.88209e-07
2.81738e-07 -1.67512e-07 2.33775e-07
1.19806e-06 -1.07317e-06 1.5023e-06
0.000965904 -0.000102594 -0.000335125
4.3948e-07 -1.45943e-07 1.81505e-07
0.000504243 0.00052516 -0.000410825
-6.66227e-07 -3.58753e-07 7.04665e-07
-3.1121e-07 -4.93902e-08 5.38237e-08
-9.00755e-07 -1.09162e-06 1.9319e-06
-1.6124e-06 -1.99881e-06 3.69964e-06
9.47506e-07 -1.58127e-07 4.42051e-07
1.44078e-07 -2.55144e-07 4.81329e-07
4.65561e-08 -1.10962e-07 2.00238e-07
-1.09721e-06 -3.26193e-06 5.32855e-06
0.000712901 -0.000262467 -9.7856e-06
4.83273e-07 -5.02071e-08 5.58706e-08
0.00190279 -0.000602409 0.000697365
3.96648e-08 -1.49114e-06 2.4494e-06
-9.58061e-07 -2.20273e-07 4.41344e-07
-2.6705e-07 -2.76254e-06 4.05598e-06
3.48856e-06 -8.37364e-06 1.20151e-05
7.37534e-07 -3.99483e-06 6.10776e-06
-5.31092e-07 -1.10755e-06 1.17923e-06
3.28411e-07 -1.75449e-08 9.33527e-08
-6.41781e-07 -2.50359e-07 2.39309e-07
-2.47306e-06 -2.0991e-06 3.69486e-06
1.29757e-06 -2.2813e-06 3.65712e-06
-8.32348e-07 -2.54526e-06 3.61283e-06
5.64437e-07 -1.73391e-07 2.89328e-07
-8.0299e-07 -1.87737e-07 2.85598e-07
-2.03175e-07 -2.66102e-07 2.61975e-07
-9.78372e-07 -9.56879e-07 1.86937e-06
3.27381e-07 -4.1656e-07 5.91224e-07
0.00119484 -0.000347018 -0.000489886
4.30822e-07 -9.94994e-07 1.49721e-06
2.20291e-07 -2.37366e-08 3.22026e-08
-1.0451e-06 -1.25844e-06 2.20034e-06
1.17747e-07 -1.27344e-06 2.2632e-06
1.00442e-07 -6.63058e-07 1.20993e-06
-7.46347e-07 -6.59994e-07 1.09294e-06
1.21693e-06 -3.00513e-06 4.86165e-06
9.15452e-07 -2.83413e-07 5.48306e-07
0.00116222 0.00039808 0.000164971
3.39415e-07 5.3361e-09 1.3604e-08
0.00120478 -6.84434e-05 -0.000326934
0.00204988 -0.000202223 -0.000496782
0.00108201 0.000749011 -0.000572163
8.11287e-07 -1.40266e-07 2.43799e-07
-3.65486e-07 -4.36329e-08 7.05402e-08
5.68831e-08 -1.12555e-06 1.92558e-06
-9.85466e-07 -6.17372e-07 1.54245e-06
-1.59348e-06 -1.03193e-06 1.62328e-06
-8.06917e-06 -8.27421e-06 1.22816e-05
-2.16299e-07 -1.51447e-06 2.035e-06
-7.9546e-08 -2.39875e-06 3.18477e-06
2.91261e-07 -1.48888e-06 2.24992e-06
0.00177044 0.000763687 -8.6263e-05
9.98669e-07 -2.53085e-06 3.97287e-06
1.39734e-06 -1.40443e-06 1.91812e-06
2.20226e-06 -2.14424e-06 3.35741e-06
2.01448e-07 -1.0621e-07 1.382e-07
1.90485e-06 -2.77241e-06 4.40304e-06
2.61652e-07 -1.17818e-07 1.39091e-07
3.40804e-07 -1.37675e-06 1.94029e-06
3.82403e-06 -2.66129e-06 4.12724e-06
-1.78174e-06 -2.6608e-06 3.80215e-06
-2.47833e-06 -2.73504e-06 3.73639e-06
-2.12998e-07 -1.11473e-08 3.1333e-08
2.69145e-06 -1.26491e-06 2.15859e-06
4.56325e-06 -1.90235e-06 3.24358e-06
3.61847e-06 -1.86134e-06 3.38326e-06
0.000795452 0.000392613 -0.000356723
2.61661e-07 -1.60492e-06 2.33968e-06
-2.74826e-07 -1.35331e-07 2.5346e-07
1.29421e-06 -1.31778e-06 2.1091e-06
2.20269e-06 -3.88913e-06 6.18636e-06
3.17271e-06 -1.22901e-06 1.97792e-06
-1.20941e-06 -1.05686e-06 1.40615e-06
-1.21812e-06 -3.30352e-06 4.88722e-06
-9.63936e-07 -3.2933e-06 5.15016e-06
-2.93985e-07 -5.69235e-08 8.52142e-08
0.00148672 0.000226312 0.000353864
-1.67198e-07 -3.60541e-08 1.24952e-08
2.95287e-07 -1.26723e-06 2.0594e-06
3.11266e-06 -1.00373e-06 1.76114e-06
0.00167091 0.00048968 -0.000713374
-1.02198e-07 -2.86636e-08 3.37665e-08
2.42625e-06 -1.07842e-06 1.50255e-06
2.76238e-07 -9.18242e-07 1.4941e-06
1.90819e-07 -1.67894e-06 2.77882e-06
-1.97923e-06 -9.4467e-07 1.43728e-06
-1.64331e-06 -1.23814e-06 2.11189e-06
0.000989068 -0.000152633 0.000397911
4.8032e-08 -1.10756e-09 2.49722e-08
0.00148005 -0.000399403 0.000355311
1.47097e-08 -1.19553e-06 1.67871e-06
1.06422e-06 -1.29951e-06 2.09463e-06
3.53812e-06 -3.33798e-06 5.3518e-06
-2.08753e-06 -2.4849e-06 4.17075e-06
-1.53038e-06 -1.00693e-06 1.49683e-06
-9.97601e-07 -1.01139e-06 1.42721e-06
-1.1991e-06 -1.86439e-06 2.76086e-06
0.00111924 0.000532328 -0.000719058
-2.78928e-06 -1.55368e-06 2.13201e-06
-2.26875e-07 -4.34491e-07 4.66799e-07
4.99955e-06 -5.64157e-06 8.75953e-06
1.12486e-06 -2.25946e-06 3.45334e-06
2.21174e-07 -2.08811e-07 2.92205e-07
9.96444e-07 -2.15353e-07 2.91382e-07
-4.1231e-09 -5.46594e-09 1.66192e-08
0.0023962 0.00079487 -5.81488e-05
-5.36456e-08 -9.75703e-07 1.57051e-06
1.57351e-06 -9.35785e-07 1.42062e-06
-4.71589e-07 -9.47793e-07 1.59629e-06
0.00151034 0.000194919 -0.000683359
0.000932219 0.000815292 0.00173837
-7.56733e-07 -6.43398e-07 1.17117e-06
-9.45833e-07 -2.35961e-06 3.66188e-06
-4.54773e-07 -2.7182e-07 2.80915e-07
2.48305e-08 -1.15491e-07 2.15768e-07
7.76172e-07 -1.01214e-06 1.43104e-06
-4.4582e-07 -3.39165e-07 6.72526e-07
-3.00332e-07 -1.5315e-06 2.52961e-06
-6.11675e-07 -1.0548e-06 1.77003e-06
1.49277e-06 -1.2458e-06 1.91248e-06
1.00654e-06 -1.60369e-07 3.94567e-07
2.21051e-06 -1.00462e-06 1.69205e-06
1.3957e-06 -7.0528e-07 1.13415e-06
1.3002e-06 -4.66822e-07 8.54461e-07
2.22501e-06 -1.97164e-06 3.21387e-06
2.37917e-07 -9.3456e-07 1.30299e-06
-7.33402e-07 -1.99415e-07 4.42421e-07
-9.61295e-07 -3.85808e-07 9.05495e-07
-4.53707e-07 -1.71417e-07 3.62955e-07
4.0079e-08 -8.4624e-07 1.4286e-06
-5.39615e-07 -1.73768e-07 1.4878e-07
1.03283e-06 -1.94672e-06 3.04352e-06
0.00178506 -0.000140461 0.000236235
-1.32829e-06 -2.34312e-06 3.74092e-06
1.9955e-06 -1.77803e-06 2.72948e-06
1.14309e-06 -2.39689e-06 3.54063e-06
0.00139258 -0.00015753 -0.00035636
-1.91908e-07 -1.00206e-07 1.71314e-07
-1.33293e-06 -9.67531e-07 1.34212e-06
-2.2921e-06 -1.86938e-06 2.89604e-06
-1.24675e-06 -1.25818e-06 2.03267e-06
8.09864e-07 -8.00943e-07 1.14897e-06
1.20018e-06 -1.2492e-06 1.89549e-06
1.02457e-06 -6.17488e-07 8.603e-07
4.87833e-07 -9.30455e-07 1.44761e-06
-4.56683e-07 -1.02883e-07 3.72512e-07
1.06608e-06 -3.33434e-07 6.53773e-07
-1.9621e-07 -1.61593e-07 1.38982e-07
-3.59873e-07 -2.03571e-07 1.87654e-07
1.08424e-06 -1.4985e-06 2.27911e-06
2.24472e-06 -5.81942e-07 1.0772e-06
3.34017e-07 -1.50428e-06 2.34362e-06
1.45395e-06 -7.19483e-07 1.24323e-06
1.9445e-06 -1.33586e-06 2.12054e-06
0.0014407 -0.000232228 -5.37984e-05
2.48769e-07 -2.51639e-08 4.90572e-08
0.00132503 -0.000651034 -3.72405e-05
1.20814e-06 -2.82036e-07 5.04994e-07
1.66435e-06 -4.87718e-07 7.3483e-07
1.75433e-06 -1.12195e-06 2.01024e-06
1.25108e-06 -8.49377e-07 1.35679e-06
-4.63722e-07 -8.51729e-07 1.01192e-06
-7.4095e-07 -6.82726e-07 8.08483e-07
2.11448e-07 -1.6937e-08 1.04066e-08
1.00306e-06 -1.16752e-06 1.72254e-06
-4.45439e-07 -1.5176e-06 2.42487e-06
1.26036e-06 -1.1584e-06 1.77505e-06
-1.23859e-06 -6.4615e-07 1.11307e-06
4.08743e-08 -1.38631e-07 1.68046e-07
-1.07833e-06 -1.49626e-06 2.28347e-06
1.76598e-07 -2.16588e-07 3.9814e-07
1.08782e-06 -5.81593e-07 9.9671e-07
2.50157e-06 -1.66368e-06 2.73697e-06
3.01114e-07 -5.25523e-07 8.24767e-07
-1.39886e-07 -1.92212e-06 3.03315e-06
1.11415e-06 -4.78233e-07 6.91577e-07
-8.34127e-07 -1.31219e-06 1.78067e-06
5.72654e-07 -1.59306e-07 1.97563e-07
0.00168776 0.000316858 0.000681365
-5.34515e-07 -3.14572e-07 6.7122e-07
-8.90499e-07 -5.74887e-07 7.14016e-07
8.33403e-07 -5.79501e-07 9.17134e-07
6.70103e-07 -3.57508e-07 4.51704e-07
-4.45079e-07 -4.08442e-07 3.92312e-07
-9.72048e-08 -5.25769e-07 9.25447e-07
0.00196261 -0.00139977 6.63192e-05
0.00199217 0.000735084 -0.00115565
1.15218e-06 -3.4135e-07 7.5073e-07
1.65552e-06 -1.12704e-06 1.8391e-06
-5.65567e-08 -4.06924e-07 5.13385e-07
3.50698e-07 -1.46959e-06 2.33694e-06
6.8115e-07 -5.36786e-07 8.78215e-07
-1.08202e-06 -6.25316e-07 1.23703e-06
1.43482e-06 -1.69942e-06 2.6507e-06
0.000760338 0.00074276 -3.756e-05
2.01321e-06 -1.18917e-06 1.95412e-06
9.9443e-08 -1.0821e-07 1.24678e-07
0.000863979 2.58074e-05 -0.000987972
-1.2012e-07 -2.05321e-07 3.5685e-07
0.00197171 -0.00118941 0.000155846
1.72848e-06 -1.56119e-06 2.51257e-06
1.14999e-06 -9.34846e-07 1.49396e-06
0.000808595 -0.00105029 9.00958e-05
8.50155e-07 -4.87782e-07 7.84191e-07
0.000727501 0.00118855 -7.90339e-05
-5.71675e-08 -5.19883e-07 7.47016e-07
2.00322e-07 -4.85444e-07 7.85958e-07
1.35091e-06 -2.9326e-07 6.4152e-07
-1.50929e-07 -1.70536e-06 2.62012e-06
1.62261e-07 -2.13395e-07 2.74486e-07
0.000692555 -0.000161813 0.000800856
-1.8698e-07 -6.34949e-07 9.0664e-07
-4.40458e-07 -1.78637e-07 2.54316e-07
-3.34417e-07 -5.17791e-07 7.52634e-07
0.000454833 -0.00039828 0.00102502
1.74489e-06 -1.02897e-06 1.6649e-06
1.68519e-06 -1.32853e-06 2.12703e-06
-2.02201e-07 -5.32205e-07 7.74287e-07
5.09012e-07 -5.00517e-07 7.84723e-07
1.04727e-07 -3.96677e-08 1.64898e-08
0.00101214 0.000474565 0.000101062
0.000710438 -0.00101052 0.000141844
0.000763711 -0.000975406 5.56378e-05
1.83268e-06 -1.00937e-06 1.66429e-06
4.29612e-07 -4.21215e-07 6.74985e-07
8.40837e-07 -3.22832e-07 3.86852e-07
-2.83879e-07 -5.27889e-07 8.79587e-07
0.000729967 0.000517684 0.000105304
0.000428751 0.000367291 -0.000530496
-1.39357e-07 -3.30278e-08 2.28736e-08
-2.11921e-07 -2.82854e-08 2.93847e-08
2.70994e-08 -1.05698e-06 1.75761e-06
-8.44755e-08 -3.7179e-08 3.71564e-08
0.000636462 -0.000253691 -0.000276596
-1.12913e-07 -1.27891e-06 2.10784e-06
6.61199e-07 -2.38493e-07 3.97538e-07
6.16591e-07 -1.72882e-06 2.47708e-06
4.30768e-09 -1.09642e-08 4.96948e-08
-4.06376e-07 -1.05761e-06 1.74163e-06
-3.60709e-07 -5.07082e-07 8.19428e-07
0.000395289 -0.000395557 0.000766017