# vtk DataFile Version 4.2
vtk output
ASCII
DATASET UNSTRUCTURED_GRID

POINTS 343 double
0.00161154 0.00421627 -2.06378e-05
0.00311682 0.00502406 0.0021352
0 0.00419538 0.00112517
0.0027746 0.00199118 0.00190654
0.00744718 0.00251168 0.00493881
0.00744399 0.00393255 0.00630328
0.010975 0.00492985 0.00486179
0.00896104 0.00497522 0.0035803
0.00984678 0.00342768 0.00678925
0.00717986 0.00509088 0.00490946
0.00602095 0.00120253 0.00992062
0.00760685 0.0021873 0.0078066
0.00604053 7.82204e-05 0.00824037
0.00289065 0.00204021 0.00799665
0.00616846 0.00261767 0.00991831
0.0100053 0.00658494 0.00681965
0.00922635 0.00630991 0.00506739
0.00324954 0.00222776 0.00510475
0 0.00143586 0.00417514
0.00228974 0.0034962 0.00400769
0.00985206 0.0033339 0.0030401
0.011165 0.00237487 0.00492438
0 0.00270918 0.00154168
0.00599676 0.00151408 -7.21633e-05
0.00721834 0.00229011 0.00210845
0.00570462 0.00360543 0.00153253
0.00193528 2.44101e-05 0.00403551
0.00603644 7.87786e-05 0.00161318
0.00377244 0.00700238 -4.61791e-05
0.00277779 0.00808953 0.00190883
0.00587745 0.00632773 0.00157211
0.0115065 0.00814358 0.00784898
0.0114661 0.00497741 0.0078746
0.0120683 0.00624918 0.00579513
0.0143697 0.00901989 0.00401569
0.0108963 0.00778595 0.00482728
0.0123131 0.0101502 0.00401409
0.0114749 0.00813011 0.00187593
0.00508603 0.00310509 0.00689537
0.00638354 0.00374857 0.00824133
0.00560609 0.00167883 0.00589843
0.00718945 0.00776507 0.00758442
0.00285097 0.00804548 0.00795342
0.00405183 0.0100503 0.00707532
0.00562143 0.00847444 0.00588616
0 0.00695361 0.00262895
0.00236163 0.0062705 0.00405755
0 0.0040177 0.00850214
0.00332191 0.00502921 0.00761937
0.00205569 0.00420084 0.00997386
0.0103154 0.00725899 0.00986307
0.00879763 0.0060911 0.00830354
0.00294148 0.00798035 0.00470399
0.00436904 0.00700145 0.00641256
0.00227616 0.00610834 0.00589683
0.0143656 0.00598595 0.00812559
0 0.00718191 0.00711644
0.00227342 0.005804 -2.88977e-05
0 0.00577432 0.00158701
0.0143667 0.00735676 0.00692872
0.00412044 0.00340372 0.00994534
0.0143642 0.00162445 0.00399837
0.0115903 0.00211206 0.00183873
0.0120849 0.00367538 0.00384881
0.00536736 0.00172308 0.00406034
0.00216013 0.0100277 0.00578711
0.00404871 5.26381e-05 0.00707697
0.00879341 0.0042932 0.00826209
0.0143661 0.00745092 0.00401851
0.0123061 0.000157965 0.00401555
0.00481245 0.00293623 -5.82128e-05
0.00388376 0.00159122 0.00994871
0.00406382 5.30808e-05 0.00278058
0.00689888 0.00528774 0.00746555
0.00454322 0.0032077 0.00310921
0 0.00849157 0.00581511
0.00700405 0.00376658 0.00369815
0.00220889 0.00273782 -2.79849e-05
0.00833002 0.00842793 0.00988904
0.00859158 0.010105 0.00839381
0.00604483 0.0100746 0.00823917
0.00576566 0.00857507 0.00992298
0.0143677 0.00866205 0.00563078
0.00452006 0.00689453 0.00309238
0 0.00748929 0.00137438
0.00196811 0.00751499 -2.51628e-05
0 0.00287343 0.00335182
0 0.00580816 0.00831736
0 0.00429792 0.00253898
0.00364294 0.00434528 -4.45717e-05
0.00205521 0.00584567 0.00997376
0.00743896 0.00656975 0.00630542
0.00517444 0.00657805 0.00816688
0.00998657 0.00275484 0.00986775
0.0115312 0.00210623 0.00788608
0.0100191 0.000129547 0.00295853
0.00865173 0.00177648 0.00350538
0.0143644 0.00305811 0.00317661
0 0.00140616 0.00256446
0.00915891 0.00834128 0.00630412
0.008364 0.00154462 -9.99121e-05
0.00867732 0.00366362 0.00149738
0.00452663 0.0100561 0.00576653
0.0123041 0.0101504 0.00567601
0.0036799 0.00145422 -4.49098e-05
0.00858955 0.000111743 0.00138925
0.00902771 0.00840001 0.00350409
0.0122979 0.000157877 0.00567738
0.00891757 0.0017881 0.00625222
0.00201267 0.00258962 0.00997429
0.0102344 0.00730943 -0.000123108
0.00742513 0.00778349 0.00207619
0.00854324 0.00620157 0.00149721
0 0.00686719 0.00578184
0.014367 0.00159544 0.00239229
0.00254427 0.00364305 0.00637542
0.014371 0.00865708 0.0024494
0.0120916 0.00633992 0.00398257
0.0085959 0.0101058 0.00138748
0.0100153 0.000129281 0.00679939
0.0143634 0.00162363 0.00563627
0.0120684 0.00372644 0.00590731
0.00215977 2.72401e-05 0.00578792
0 0.0013659 0.00748679
0.00196016 2.47968e-05 0.0075045
0.0143654 0.00704343 0.00559696
0.00836202 0.008596 -0.000101407
0 0.0075208 0.00859127
0.00195549 0.00751155 0.00997506
0.00607616 0.00828192 0.00355052
0.0123526 0.0101495 0.00735155
0.0143701 0.00880006 0.00733655
0.00829241 0.00169369 0.00989026
0.010431 0.00431967 0.00986148
0 0.0057735 0.00666667
0.00196095 0.0100251 0.00750357
0 0.00863025 0.00752641
0.012347 0.000160014 0.00235672
0.0143675 0.0071309 0.00245521
0.0121624 0.00649326 0.00201516
0.0122321 0.00597592 0.00983845
0.0107624 0.00151272 0.00985792
0.0123461 0.000159601 0.00735352
0.0143652 0.00155407 0.00729858
0 0.00143551 0.00581971
0.00858495 0.00011113 0.00839495
0.00604957 7.87261e-05 0.00332408
0.011408 0.00485229 0.00189613
0.0143655 0.00447984 0.00236685
0.00606978 0.0100748 0.0065882
0.00406581 0.0100501 0.00277915
0.00188039 2.39731e-05 0.00239426
0 0.00727418 0.00419576
0.0143644 0.00595183 0.00647968
0.0100257 0.0101227 0.00295653
0.010791 0.00876824 0.00985657
0 0.00574334 0.00336387
0 0.0043297 0.00416652
0.00987021 0.00590725 0.00986904
0.0143629 0.00320622 0.00672955
0.00606495 7.881e-05 0.00658992
0.00355244 0.010044 0.00856527
0.0107643 0.0015061 -0.000127929
0.00829378 0.00677015 0.0098897
0.0143693 0.00769456 0.00839783
0.0123763 0.00770462 0.00983591
0.00994159 0.00315053 -0.000118374
0.0048299 0.00580591 -5.86275e-05
0.0108271 0.00876418 -0.000129673
0.0108092 0.010132 0.0012553
0.00831256 0.00697175 -0.000100365
0.0100265 0.00649692 0.00290911
0.0108028 0.000140957 0.00125647
0.00413631 0.00505099 0.00994527
0.00621578 0.00591164 0.00991728
0.00621449 0.00424491 0.00991747
0.010806 0.0101306 0.00847465
0.00354952 4.58628e-05 0.00856658
0.0143653 0.00592257 0.00318872
0 0.00302218 0.00691532
0.0143649 0.00420028 0.00830919
0.012227 0.00417401 -0.000144477
0.0143682 0.00289441 0.00137455
0 0.00244495 0.00857025
0.00350616 0.00861414 0.00995361
0.0107991 0.000140181 0.00847617
0.0122 0.00277913 0.00983881
0.0127222 0.0043545 0.00983127
0.00814812 0.0100999 0.00572902
0.00745054 0.00767694 0.00493778
0.00810919 0.0100993 0.00411212
0.0100217 0.0101225 0.00679792
0.00433534 0.00697039 0.0099425
0.00598512 0.00440731 -7.20069e-05
0.00406724 5.26885e-05 0.00435347
0.00452316 5.88843e-05 0.00576873
0.0143695 0.00437806 0.000959106
0.0052242 0.00840356 0.00152261
0.0143637 0.00451098 0.00398867
0.00958548 0.00589424 -0.000115259
0.0123535 0.0101504 0.00235525
0 0.00848692 0.00262374
0.00193541 0.0100251 0.00403469
0 0.00885053 0.00419359
0.00602635 0.00892602 -7.35488e-05
0.00604058 0.0100744 0.00161183
0.00718196 0.00488366 0.00228992
0.0103804 0.00465388 -0.000123737
0.00810278 0.000105041 0.00411464
0.00814215 0.000105589 0.00573102
0.00188015 0.0100241 0.0023933
0.0123244 0.00260447 -0.000145936
0.0143632 0.004703 0.00703179
0.0102283 0.0101253 0.00487047
0.00824833 0.00346871 0.00989045
0.00352624 4.62865e-05 0.00131234
0.0143661 0.00263092 0.008377
0.00343445 0.00483524 0.00495609
0.00838442 0.00443773 -0.000100262
0.0119628 0.00595757 -0.000141439
0.00787245 0.0100966 0.00711863
0.0143625 0.0045113 0.00565017
0.00776528 0.0100954 0.00267798
0.0102219 0.000131863 0.00487211
0.00406938 0.0100504 0.00435141
0 0.00452174 0.00721958
0.00649141 0.00730113 0.00991347
0.00786646 0.000102005 0.00711979
0.00517197 0.00514043 0.0035304
0.00610606 0.0100749 0.00492957
0.00610113 7.95437e-05 0.00493214
0.00526815 0.00528402 0.00610776
0 0.005744 0.00499998
0 0.00433013 0.00583333
0.00718564 0.00583593 -8.65094e-05
0.00716123 0.00643018 0.00346346
0.00775914 0.000100749 0.00267988
0.014364 0.0059219 0.00481885
0.00529733 0.00647587 0.00477638
0.00825 0.00510358 0.00989033
0.0143692 0.00595264 0.00141914
0 0.00666667 0
0.0123583 0.00767309 -0.000146267
0.00478569 6.31312e-05 -5.78449e-05
0 0.01 0.00666667
0.00718357 0.0100873 0.00990457
0 0.00288419 0.00499914
0.0143716 0.00766435 0.00120668
0.014375 0.00684281 -0.000165226
0 0.005 0.01
0.00718297 0.00297744 -8.60439e-05
0 0.005 0
0.0143705 0.000192799 0.00315911
0.0143769 0.0101651 0.00647876
0.00602842 0.00735073 -7.3175e-05
0.0143631 0.00306904 0.00481877
0.00718402 9.46652e-05 -8.65046e-05
0 0 0.00666667
0.00545203 0.00368658 0.00515716
0.0071783 9.292e-05 0.00990577
0.0143691 0.000192243 0.00648097
0 0 0.005
0.0126318 0.0101526 0.00106898
0.0143761 0.00894989 0.00105299
0.014369 0.000192207 0.00481949
0.014374 0.00518096 -0.000164065
0.00174767 0.00124258 -2.21412e-05
0 0.00122008 0.00122008
0 0.00333333 0.01
0 0.00666667 0.01
0.0126315 0.00893347 -0.00014948
0.0143778 0.0101647 0.00315662
0.00605398 0.0100743 0.00332188
0.0143736 0.00684227 0.00980161
0 0.00333333 0
0 0.00122008 0.00877992
0.00174607 2.21198e-05 0.00875824
0.00174588 0.00124211 0.00997769
0.0126279 0.0101512 0.00861282
0.00174673 0.00880205 0.00997758
0 0.00877992 0.00877992
0.0143733 0.00894855 0.00858616
0.00959021 0.0101171 -0.000116703
0.0143712 0.00141069 0.00105304
0.00174713 0.0100221 0.00875755
0.0126272 0.0089314 0.00983164
0.0143724 0.00517952 0.00980222
0 0 0.00333333
0.0095832 0.0001258 -0.000114778
0.0126246 0.000165464 0.00106938
0.00173542 2.23154e-05 0.00118975
0 0.00877992 0.00122008
0.00174681 0.00880266 -2.24078e-05
0.00173497 0.0100221 0.00118887
0.0143684 0.00140918 0.00858694
0.0126223 0.00138397 0.00983276
0.00957694 0.000124162 0.009874
0.0126267 0.00138581 -0.000149014
0.0126213 0.000164272 0.00861446
0.0143741 0.00351838 -0.000163768
0.0047847 0.0100583 0.00993633
0.00352747 0.0100437 0.00131121
0.00958394 0.0101159 0.0098729
0.0143713 0.00351631 0.00980206
0 0.01 0.005
0.00376542 0.00853491 -4.63938e-05
0.0143765 0.0101648 0.00481905
0 0.01 0.00333333
0 0.00166667 0
0.0143737 0.000192681 0.00149796
0 0.00166667 0.01
0 0.00833333 0
0.0143791 0.00850566 -0.000165827
0.0143711 0.000191881 0.00814283
0.0143813 0.0101666 0.00149777
0.0143787 0.0101654 0.00814108
0.00238857 0.0100293 0.00996891
0 0.01 0.00833333
0.0119923 0.0101448 -0.000143334
0.011985 0.000158163 -0.000142489
0.0119802 0.000156279 0.00984215
0.0119871 0.010143 0.00984083
0 0 0.00833333
0.0143768 0.00850266 0.00980255
0.00238919 3.15955e-05 -2.97834e-05
0 0 0.00166667
0.00478822 0.0100592 -5.89146e-05
0.0143724 0.00185524 0.00980332
0.0143756 0.00185732 -0.000164594
0.00238639 3.06434e-05 0.00996956
0.00238905 0.0100299 -3.03353e-05
0 0.01 0.00166667
0.0143822 0.0101671 0.00980394
0 0 0.01
0.0143858 0.0101676 -0.000167114
0.0143751 0.000190704 0.00980593
0 0.01 0.01
0.0143789 0.000192438 -0.000166188
0 0.01 0
0 0 0
0.00718901 0.0100882 -8.81424e-05
0.00478107 6.18333e-05 0.00993712
0 0.00833333 0.01

CELLS 343 686
1 0
1 1
1 2
1 3
1 4
1 5
1 6
1 7
1 8
1 9
1 10
1 11
1 12
1 13
1 14
1 15
1 16
1 17
1 18
1 19
1 20
1 21
1 22
1 23
1 24
1 25
1 26
1 27
1 28
1 29
1 30
1 31
1 32
1 33
1 34
1 35
1 36
1 37
1 38
1 39
1 40
1 41
1 42
1 43
1 44
1 45
1 46
1 47
1 48
1 49
1 50
1 51
1 52
1 53
1 54
1 55
1 56
1 57
1 58
1 59
1 60
1 61
1 62
1 63
1 64
1 65
1 66
1 67
1 68
1 69
1 70
1 71
1 72
1 73
1 74
1 75
1 76
1 77
1 78
1 79
1 80
1 81
1 82
1 83
1 84
1 85
1 86
1 87
1 88
1 89
1 90
1 91
1 92
1 93
1 94
1 95
1 96
1 97
1 98
1 99
1 100
1 101
1 102
1 103
1 104
1 105
1 106
1 107
1 108
1 109
1 110
1 111
1 112
1 113
1 114
1 115
1 116
1 117
1 118
1 119
1 120
1 121
1 122
1 123
1 124
1 125
1 126
1 127
1 128
1 129
1 130
1 131
1 132
1 133
1 134
1 135
1 136
1 137
1 138
1 139
1 140
1 141
1 142
1 143
1 144
1 145
1 146
1 147
1 148
1 149
1 150
1 151
1 152
1 153
1 154
1 155
1 156
1 157
1 158
1 159
1 160
1 161
1 162
1 163
1 164
1 165
1 166
1 167
1 168
1 169
1 170
1 171
1 172
1 173
1 174
1 175
1 176
1 177
1 178
1 179
1 180
1 181
1 182
1 183
1 184
1 185
1 186
1 187
1 188
1 189
1 190
1 191
1 192
1 193
1 194
1 195
1 196
1 197
1 198
1 199
1 200
1 201
1 202
1 203
1 204
1 205
1 206
1 207
1 208
1 209
1 210
1 211
1 212
1 213
1 214
1 215
1 216
1 217
1 218
1 219
1 220
1 221
1 222
1 223
1 224
1 225
1 226
1 227
1 228
1 229
1 230
1 231
1 232
1 233
1 234
1 235
1 236
1 237
1 238
1 239
1 240
1 241
1 242
1 243
1 244
1 245
1 246
1 247
1 248
1 249
1 250
1 251
1 252
1 253
1 254
1 255
1 256
1 257
1 258
1 259
1 260
1 261
1 262
1 263
1 264
1 265
1 266
1 267
1 268
1 269
1 270
1 271
1 272
1 273
1 274
1 275
1 276
1 277
1 278
1 279
1 280
1 281
1 282
1 283
1 284
1 285
1 286
1 287
1 288
1 289
1 290
1 291
1 292
1 293
1 294
1 295
1 296
1 297
1 298
1 299
1 300
1 301
1 302
1 303
1 304
1 305
1 306
1 307
1 308
1 309
1 310
1 311
1 312
1 313
1 314
1 315
1 316
1 317
1 318
1 319
1 320
1 321
1 322
1 323
1 324
1 325
1 326
1 327
1 328
1 329
1 330
1 331
1 332
1 333
1 334
1 335
1 336
1 337
1 338
1 339
1 340
1 341
1 342

CELL_TYPES 343
1
1
1
1
1
1
1
1
1
1
1
1
1
1
1
1
1
1
1
1
1
1
1
1
1
1
1
1
1
1
1
1
1
1
1
1
1
1
1
1
1
1
1
1
1
1
1
1
1
1
1
1
1
1
1
1
1
1
1
1
1
1
1
1
1
1
1
1
1
1
1
1
1
1
1
1
1
1
1
1
1
1
1
1
1
1
1
1
1
1
1
1
1
1
1
1
1
1
1
1
1
1
1
1
1
1
1
1
1
1
1
1
1
1
1
1
1
1
1
1
1
1
1
1
1
1
1
1
1
1
1
1
1
1
1
1
1
1
1
1
1
1
1
1
1
1
1
1
1
1
1
1
1
1
1
1
1
1
1
1
1
1
1
1
1
1
1
1
1
1
1
1
1
1
1
1
1
1
1
1
1
1
1
1
1
1
1
1
1
1
1
1
1
1
1
1
1
1
1
1
1
1
1
1
1
1
1
1
1
1
1
1
1
1
1
1
1
1
1
1
1
1
1
1
1
1
1
1
1
1
1
1
1
1
1
1
1
1
1
1
1
1
1
1
1
1
1
1
1
1
1
1
1
1
1
1
1
1
1
1
1
1
1
1
1
1
1
1
1
1
1
1
1
1
1
1
1
1
1
1
1
1
1
1
1
1
1
1
1
1
1
1
1
1
1
1
1
1
1
1
1
1
1
1
1
1
1
1
1
1
1
1
1
1
1
1
1
1
1
1
1
1
1
1
1
1
1
1
1
1
1
1
1
1
1
1
1
1
1
1
1
1
1

POINT_DATA 343
FIELD FieldData 8

NodeID_(#) 1 343 int
0
1
2
3
4
5
6
7
8
9
10
11
12
13
14
15
16
17
18
19
20
21
22
23
24
25
26
27
28
29
30
31
32
33
34
35
36
37
38
39
40
41
42
43
44
45
46
47
48
49
50
51
52
53
54
55
56
57
58
59
60
61
62
63
64
65
66
67
68
69
70
71
72
73
74
75
76
77
78
79
80
81
82
83
84
85
86
87
88
89
90
91
92
93
94
95
96
97
98
99
100
101
102
103
104
105
106
107
108
109
110
111
112
113
114
115
116
117
118
119
120
121
122
123
124
125
126
127
128
129
130
131
132
133
134
135
136
137
138
139
140
141
142
143
144
145
146
147
148
149
150
151
152
153
154
155
156
157
158
159
160
161
162
163
164
165
166
167
168
169
170
171
172
173
174
175
176
177
178
179
180
181
182
183
184
185
186
187
188
189
190
191
192
193
194
195
196
197
198
199
200
201
202
203
204
205
206
207
208
209
210
211
212
213
214
215
216
217
218
219
220
221
222
223
224
225
226
227
228
229
230
231
232
233
234
235
236
237
238
239
240
241
242
243
244
245
246
247
248
249
250
251
252
253
254
255
256
257
258
259
260
261
262
263
264
265
266
267
268
269
270
271
272
273
274
275
276
277
278
279
280
281
282
283
284
285
286
287
288
289
290
291
292
293
294
295
296
297
298
299
300
301
302
303
304
305
306
307
308
309
310
311
312
313
314
315
316
317
318
319
320
321
322
323
324
325
326
327
328
329
330
331
332
333
334
335
336
337
338
339
340
341
342

Component_(#) 1 343 int
0
0
0
0
0
0
0
0
0
0
0
0
0
0
0
0
0
0
0
0
0
0
0
0
0
0
0
0
0
0
0
0
0
0
0
0
0
0
0
0
0
0
0
0
0
0
0
0
0
0
0
0
0
0
0
0
0
0
0
0
0
0
0
0
0
0
0
0
0
0
0
0
0
0
0
0
0
0
0
0
0
0
0
0
0
0
0
0
0
0
0
0
0
0
0
0
0
0
0
0
0
0
0
0
0
0
0
0
0
0
0
0
0
0
0
0
0
0
0
0
0
0
0
0
0
0
0
0
0
0
0
0
0
0
0
0
0
0
0
0
0
0
0
0
0
0
0
0
0
0
0
0
0
0
0
0
0
0
0
0
0
0
0
0
0
0
0
0
0
0
0
0
0
0
0
0
0
0
0
0
0
0
0
0
0
0
0
0
0
0
0
0
0
0
0
0
0
0
0
0
0
0
0
0
0
0
0
0
0
0
0
0
0
0
0
0
0
0
0
0
0
0
0
0
0
0
0
0
0
0
0
0
0
0
0
0
0
0
0
0
0
0
0
0
0
0
0
0
0
0
0
0
0
0
0
0
0
0
0
0
0
0
0
0
0
0
0
0
0
0
0
0
0
0
0
0
0
0
0
0
0
0
0
0
0
0
0
0
0
0
0
0
0
0
0
0
0
0
0
0
0
0
0
0
0
0
0
0
0
0
0
0
0
0
0
0
0
0
0
0
0
0
0
0
0
0
0
0
0
0
0
0
0
0
0
0
0
0
0
0
0
0
0

NodalMass_(kg) 1 343 double
3.15563e-06
1.41304e-05
2.20912e-06
1.71484e-05
8.42e-06
9.09306e-06
1.01179e-05
7.52198e-06
6.81096e-06
5.58223e-06
3.10888e-06
1.07575e-05
4.87011e-06
1.64955e-05
3.0246e-06
8.05984e-06
6.703e-06
1.0877e-05
4.18978e-06
8.16106e-06
6.14143e-06
1.17902e-05
2.23114e-06
4.25176e-06
1.09915e-05
7.41467e-06
4.21871e-06
3.92484e-06
3.08766e-06
1.31268e-05
7.72627e-06
1.65404e-05
1.19037e-05
7.97564e-06
3.81683e-06
1.11001e-05
3.81317e-06
1.39137e-05
6.37414e-06
8.00975e-06
7.6712e-06
1.21135e-05
1.6399e-05
2.78633e-06
8.93599e-06
2.58087e-06
7.57362e-06
4.23241e-06
1.31286e-05
3.80168e-06
2.7746e-06
7.16776e-06
1.21307e-05
5.11765e-06
8.19728e-06
4.58094e-06
2.79503e-06
3.26126e-06
4.12443e-06
2.11915e-06
3.35177e-06
3.61669e-06
1.56838e-05
7.33679e-06
8.24695e-06
5.00369e-06
2.82625e-06
7.20276e-06
3.26815e-06
4.18751e-06
2.02785e-06
2.42152e-06
3.11835e-06
5.97459e-06
5.87101e-06
4.09374e-06
5.45463e-06
2.28825e-06
4.49759e-06
4.38192e-06
4.50892e-06
4.39234e-06
4.27273e-06
5.32031e-06
1.53201e-06
2.38869e-06
2.02885e-06
4.38798e-06
3.17972e-06
3.14298e-06
4.61567e-06
5.87645e-06
8.18088e-06
2.48341e-06
1.53815e-05
3.49683e-06
7.35227e-06
2.01314e-06
2.0408e-06
7.98183e-06
4.41293e-06
7.1389e-06
1.20123e-06
5.03343e-06
1.61257e-06
4.12601e-06
8.73748e-06
4.37849e-06
7.97173e-06
2.13557e-06
3.38137e-06
9.48623e-06
7.40262e-06
1.80226e-06
2.10222e-06
7.98889e-06
1.87983e-06
7.44814e-06
4.19782e-06
2.37156e-06
4.31705e-06
6.06441e-06
4.30905e-06
2.16843e-06
1.8986e-06
1.81294e-06
3.89762e-06
2.44299e-06
1.65628e-06
8.01374e-06
1.64513e-06
2.3931e-06
3.01363e-06
2.99431e-06
1.36541e-06
1.87293e-06
2.09622e-06
1.94762e-06
1.87618e-06
6.37913e-06
4.58628e-06
2.02767e-06
1.61999e-06
2.41284e-06
3.8865e-06
4.44973e-06
2.29839e-06
1.17349e-05
3.11811e-06
1.354e-06
3.45063e-06
1.81846e-06
2.9382e-06
1.37381e-06
2.41464e-06
2.10451e-06
2.63927e-06
2.14166e-06
1.7943e-06
3.19976e-06
1.36989e-06
2.43489e-06
2.08158e-06
1.3601e-06
2.17203e-06
1.89924e-06
3.16996e-06
2.6119e-06
2.37677e-06
1.60225e-06
1.90684e-06
5.49206e-06
1.87878e-06
3.14313e-06
2.97301e-06
1.18454e-06
1.89263e-06
2.04166e-06
2.73572e-06
2.42405e-06
3.23083e-06
3.19752e-06
3.2142e-06
1.94492e-06
1.61196e-06
1.86876e-06
3.22435e-06
2.1114e-06
2.96917e-06
6.15288e-06
2.3097e-06
2.39729e-06
2.38029e-06
2.64508e-06
1.66557e-06
1.82377e-06
2.06583e-06
5.73271e-06
2.08467e-06
2.18324e-06
2.43522e-06
3.1188e-06
3.17316e-06
2.05447e-06
1.9592e-06
3.05718e-06
6.44327e-06
2.08796e-06
2.72615e-06
2.15709e-06
1.86812e-06
2.0028e-06
2.10999e-06
2.88994e-06
2.3222e-06
2.3979e-06
1.97629e-06
6.4127e-06
2.16225e-06
3.29198e-06
2.10223e-06
2.66566e-06
1.94415e-06
2.91865e-06
2.58116e-06
2.11703e-06
2.09534e-06
1.91719e-06
7.06046e-06
2.25203e-06
2.06378e-06
6.28159e-06
2.12147e-06
2.90924e-06
2.12921e-06
6.4487e-06
1.41701e-06
2.0682e-06
6.58062e-06
2.52584e-06
2.39732e-06
7.42191e-07
2.22368e-06
7.06751e-07
7.00657e-07
8.93749e-07
2.53536e-06
2.26535e-06
1.33607e-06
7.84725e-07
2.32303e-06
6.06694e-07
6.68276e-07
6.84307e-07
2.51242e-06
2.31629e-06
7.8367e-07
6.80839e-07
6.22692e-06
6.7471e-07
6.65305e-07
7.01158e-07
1.8232e-06
1.90695e-06
6.86722e-07
7.04792e-07
1.86445e-06
2.28572e-06
6.8045e-07
7.16005e-07
1.82373e-06
6.01079e-07
2.02791e-06
7.4579e-07
5.74423e-07
1.80052e-06
1.454e-06
2.2702e-06
1.80636e-06
2.15356e-06
1.79089e-06
1.79456e-06
6.8231e-07
2.24737e-06
1.45239e-06
1.79556e-06
6.97875e-07
6.24265e-07
6.62717e-07
1.44627e-06
1.40138e-06
2.15258e-06
1.82851e-06
1.3994e-06
1.43932e-06
2.19226e-06
6.97732e-07
1.77726e-06
1.79162e-06
6.54258e-07
7.3397e-07
2.34895e-06
7.10392e-07
6.56982e-07
6.26314e-07
2.18926e-06
6.12493e-07
6.03901e-07
5.92831e-07
5.12031e-07
5.11667e-07
4.9467e-07
4.97016e-07
4.96269e-07
5.33079e-07
4.94191e-07
4.97855e-07
4.86862e-07
4.90626e-07
4.94649e-07
4.94954e-07
4.91922e-07
4.89615e-07
4.96354e-07
4.95189e-07
4.82188e-07
1.10854e-06
5.3299e-07
5.44763e-07
5.36655e-07
5.15417e-07
5.01772e-07
5.53774e-07
5.53774e-07
5.53774e-07
5.53774e-07
5.53774e-07
5.53774e-07
5.50785e-07
5.50785e-07
7.45291e-07
7.11668e-07
4.9897e-07

NodalForce_(N) 3 343 double
9.97921e-08 -9.93828e-09 6.74011e-09
6.73434e-07 -1.46544e-07 2.32532e-07
0.000233063 1.22348e-06 0.000575767
3.1858e-07 -1.97456e-07 2.16556e-07
-5.33372e-07 -9.07338e-07 1.11687e-06
-7.44775e-07 -8.35688e-07 1.28743e-06
1.17379e-07 -2.01768e-06 3.13401e-06
5.59236e-07 -9.78485e-07 1.53228e-06
-9.31683e-07 -1.20113e-06 1.74491e-06
4.76058e-08 -4.37008e-07 6.9061e-07
-7.27025e-07 -2.87784e-07 3.656e-07
-2.06409e-06 -1.31298e-06 1.76249e-06
-1.01766e-06 -4.87531e-07 5.32152e-07
-8.936e-07 -1.86762e-07 2.77925e-07
-6.26307e-07 -2.36671e-07 3.77775e-07
-2.80946e-07 -1.26772e-06 2.13582e-06
2.96358e-07 -8.9265e-07 1.45488e-06
-2.16631e-07 -1.58499e-07 2.43194e-07
0.000836228 0.000595264 0.000377651
4.87184e-08 -3.16781e-08 6.13748e-08
3.14911e-07 -1.09253e-06 1.53434e-06
-9.69771e-07 -2.78498e-06 3.78548e-06
0.00178088 -0.000307451 0.000390928
4.10524e-07 -3.79235e-07 4.45394e-07
5.02167e-07 -1.2254e-06 1.65889e-06
6.63355e-07 -4.13057e-07 7.40602e-07
-8.19574e-08 -1.58028e-08 3.73544e-08
7.49591e-09 -3.5557e-07 4.33895e-07
4.31801e-07 -4.48227e-08 1.18007e-07
8.40906e-07 -5.3613e-08 1.9696e-07
1.09596e-06 -3.10255e-07 8.0077e-07
-5.44369e-07 -3.55874e-06 5.8674e-06
-1.79858e-06 -2.5979e-06 4.15694e-06
1.04254e-07 -1.86735e-06 2.98343e-06
8.66001e-07 -1.23185e-06 1.9068e-06
1.31948e-06 -2.12657e-06 3.37661e-06
9.86766e-07 -9.64149e-07 1.46636e-06
4.13319e-06 -2.93162e-06 4.79463e-06
-4.44709e-07 -2.72315e-07 4.05071e-07
-1.06983e-06 -5.26275e-07 1.00144e-06
-6.97201e-07 -5.36606e-07 5.304e-07
-3.15477e-07 -1.02658e-06 1.82063e-06
-2.11566e-07 -1.79027e-07 2.59934e-07
1.03986e-07 -7.86442e-08 1.03034e-07
4.39332e-07 -4.67633e-07 6.58773e-07
0.00100547 -5.94282e-05 -0.000339936
1.5922e-07 -5.93234e-08 8.08411e-08
0.000442441 0.000547535 -0.000442574
-3.61491e-07 -1.45874e-07 3.0753e-07
-1.46846e-07 -2.04764e-08 2.43254e-08
-4.26436e-07 -4.86626e-07 8.42985e-07
-7.98194e-07 -8.76814e-07 1.61259e-06
3.34858e-07 -5.74705e-08 1.9639e-07
2.03489e-08 -1.02271e-07 2.11643e-07
-1.28579e-08 -4.43364e-08 8.78975e-08
-5.45984e-07 -1.49689e-06 2.33563e-06
0.000759921 -0.000262415 7.0296e-06
2.01684e-07 -1.96494e-08 2.71572e-08
0.00191616 -0.000601841 0.000690524
-2.01647e-09 -6.81827e-07 1.07897e-06
-4.38688e-07 -9.56205e-08 1.94172e-07
-2.08159e-07 -1.33134e-06 1.80823e-06
1.20389e-06 -4.00194e-06 5.43453e-06
1.87943e-07 -1.85884e-06 2.72403e-06
-3.40472e-07 -5.33562e-07 5.21414e-07
1.18939e-07 -1.20623e-08 4.18964e-08
-3.15318e-07 -1.30294e-07 1.03628e-07
-1.19855e-06 -9.4284e-07 1.60863e-06
5.49221e-07 -1.04316e-06 1.63039e-06
-4.91637e-07 -1.25618e-06 1.6101e-06
2.38038e-07 -7.933e-08 1.34956e-07
-3.67467e-07 -9.01974e-08 1.24301e-07
-1.2794e-07 -1.41127e-07 1.1804e-07
-5.00542e-07 -4.13304e-07 8.13983e-07
9.71871e-08 -1.81904e-07 2.61166e-07
0.00126709 -0.000331027 -0.000497265
1.18953e-07 -4.46683e-07 6.66018e-07
9.18068e-08 -1.02959e-08 1.54254e-08
-5.02092e-07 -5.57984e-07 9.60709e-07
1.77832e-08 -5.84525e-07 9.88206e-07
6.75946e-09 -3.04558e-07 5.28619e-07
-3.65494e-07 -2.91139e-07 4.79102e-07
5.1564e-07 -1.37398e-06 2.15133e-06
3.5609e-07 -1.12919e-07 2.43553e-07
0.00118367 0.00037467 0.000190093
1.40009e-07 3.12268e-09 7.35814e-09
0.00120711 -0.000101916 -0.000306605
0.00193774 -0.000221084 -0.000497383
0.00106586 0.000764908 -0.000566931
3.46415e-07 -5.99082e-08 1.13886e-07
-1.75806e-07 -1.75524e-08 3.25088e-08
-4.33232e-08 -4.83678e-07 8.43501e-07
-5.05591e-07 -2.53342e-07 6.72925e-07
-7.51202e-07 -4.83578e-07 7.06896e-07
-3.94186e-06 -3.92867e-06 5.35322e-06
-1.85417e-07 -7.55673e-07 9.15455e-07
-1.78366e-07 -1.15142e-06 1.42679e-06
8.8792e-08 -7.04455e-07 1.0075e-06
0.00177732 0.000781277 -6.82205e-05
3.56021e-07 -1.12223e-06 1.7408e-06
5.45327e-07 -6.86396e-07 8.85055e-07
8.70964e-07 -9.88229e-07 1.52571e-06
7.89447e-08 -4.89855e-08 6.02972e-08
8.22381e-07 -1.28394e-06 1.94314e-06
1.06981e-07 -5.78879e-08 6.51146e-08
6.11073e-08 -6.92826e-07 8.85809e-07
1.60784e-06 -1.1805e-06 1.84387e-06
-9.20354e-07 -1.31081e-06 1.6769e-06
-1.26062e-06 -1.30812e-06 1.63046e-06
-9.8066e-08 -4.94914e-09 1.40628e-08
1.16811e-06 -5.61252e-07 9.86827e-07
1.92704e-06 -8.26256e-07 1.46979e-06
1.52622e-06 -8.04637e-07 1.53784e-06
0.000734266 0.000390695 -0.000401845
6.57578e-08 -7.75806e-07 1.05198e-06
-1.48622e-07 -5.71958e-08 1.10781e-07
5.67152e-07 -6.03485e-07 9.47542e-07
8.83392e-07 -1.754e-06 2.75623e-06
1.3787e-06 -5.66963e-07 8.98776e-07
-5.9919e-07 -5.23642e-07 6.13393e-07
-6.50168e-07 -1.59001e-06 2.15949e-06
-5.46609e-07 -1.52936e-06 2.2699e-06
-1.47734e-07 -3.26067e-08 3.70596e-08
0.00146597 0.00019807 0.000377974
-8.06179e-08 -1.88599e-08 5.16778e-09
1.12979e-07 -5.79749e-07 9.11335e-07
1.35236e-06 -4.47067e-07 8.08385e-07
0.00167254 0.000477835 -0.000743851
-5.14527e-08 -1.17413e-08 1.52683e-08
9.87999e-07 -4.68349e-07 6.68327e-07
1.15139e-07 -4.25486e-07 6.55658e-07
7.18391e-08 -7.67552e-07 1.2219e-06
-9.28162e-07 -4.52554e-07 6.2449e-07
-7.7508e-07 -5.64358e-07 9.20118e-07
0.00107707 -0.000161696 0.000410029
1.29246e-08 -1.85523e-09 1.12754e-08
0.00147109 -0.000372673 0.000381019
-4.91113e-08 -5.92765e-07 7.57517e-07
4.57059e-07 -5.94408e-07 9.40558e-07
1.4995e-06 -1.50616e-06 2.41188e-06
-9.87767e-07 -1.12827e-06 1.82105e-06
-7.23079e-07 -4.83581e-07 6.50738e-07
-4.90955e-07 -4.97887e-07 6.23373e-07
-5.94355e-07 -8.97768e-07 1.21155e-06
0.00109269 0.000541425 -0.000740225
-1.33518e-06 -7.71006e-07 9.2378e-07
-1.41536e-07 -2.2214e-07 2.08579e-07
2.04166e-06 -2.58105e-06 3.95236e-06
4.50728e-07 -1.05162e-06 1.55158e-06
8.58425e-08 -9.6464e-08 1.27424e-07
4.11934e-07 -1.01536e-07 1.29516e-07
-9.49983e-09 -5.37758e-09 7.6559e-09
0.0023577 0.000759483 -3.76686e-05
-4.21154e-08 -4.47845e-07 6.92006e-07
6.83718e-07 -4.32447e-07 6.37257e-07
-2.25714e-07 -4.27044e-07 6.98708e-07
0.00150774 0.000154996 -0.000682381
0.000944413 0.000822021 0.00176246
-3.5663e-07 -2.86434e-07 5.11103e-07
-4.86285e-07 -1.1116e-06 1.6103e-06
-2.24815e-07 -1.3786e-07 1.22058e-07
-3.76643e-09 -5.49444e-08 9.42206e-08
3.02244e-07 -4.92252e-07 6.56795e-07
-2.10986e-07 -1.48707e-07 2.93454e-07
-1.51472e-07 -6.99727e-07 1.10852e-06
-2.89162e-07 -4.7632e-07 7.73637e-07
6.11333e-07 -5.8611e-07 8.77433e-07
4.29685e-07 -6.43062e-08 1.83656e-07
9.68258e-07 -4.53157e-07 7.71425e-07
6.13017e-07 -3.26964e-07 5.13543e-07
5.60621e-07 -2.02657e-07 3.92481e-07
9.25429e-07 -8.70382e-07 1.44216e-06
5.65603e-08 -4.67068e-07 5.93824e-07
-3.40523e-07 -8.36664e-08 1.9401e-07
-4.51345e-07 -1.64387e-07 3.95095e-07
-2.11137e-07 -7.44565e-08 1.5852e-07
6.3802e-09 -3.91151e-07 6.24915e-07
-2.56454e-07 -8.83211e-08 6.47575e-08
4.24385e-07 -8.94338e-07 1.36184e-06
0.00180169 -0.000123724 0.000259172
-6.4775e-07 -1.09121e-06 1.63774e-06
8.37876e-07 -8.27711e-07 1.24702e-06
4.45896e-07 -1.1374e-06 1.60047e-06
0.00139317 -0.00017413 -0.000337168
-9.47474e-08 -4.38327e-08 7.52692e-08
-6.42224e-07 -4.77417e-07 5.82472e-07
-1.08563e-06 -8.7977e-07 1.26118e-06
-5.90351e-07 -5.81271e-07 8.86447e-07
3.29672e-07 -3.69071e-07 5.02882e-07
4.60555e-07 -5.41447e-07 8.35202e-07
4.32128e-07 -2.84776e-07 3.82084e-07
1.98997e-07 -4.29093e-07 6.32739e-07
-2.17951e-07 -4.12066e-08 1.63433e-07
4.5334e-07 -1.4498e-07 3.02772e-07
-1.06952e-07 -8.37234e-08 6.05789e-08
-1.83292e-07 -1.05802e-07 8.21811e-08
4.50702e-07 -6.99736e-07 1.03236e-06
9.43442e-07 -2.53077e-07 4.90881e-07
1.14084e-07 -6.99029e-07 1.04468e-06
6.22189e-07 -3.19393e-07 5.70762e-07
8.57036e-07 -6.20223e-07 9.5258e-07
0.00148905 -0.000276295 -7.76128e-05
9.4841e-08 -1.33865e-08 2.1645e-08
0.00133715 -0.000644632 -2.81031e-06
5.20994e-07 -1.26033e-07 2.32563e-07
7.12392e-07 -2.26279e-07 3.33951e-07
7.04855e-07 -4.88112e-07 9.07941e-07
5.2741e-07 -3.8827e-07 6.2149e-07
-2.66737e-07 -4.274e-07 4.50105e-07
-3.77184e-07 -3.41701e-07 3.53123e-07
8.48291e-08 -8.83969e-09 4.74705e-09
4.07311e-07 -5.56625e-07 7.8815e-07
-2.32862e-07 -7.03528e-07 1.06604e-06
5.40588e-07 -5.35277e-07 7.8509e-07
-5.79912e-07 -2.94795e-07 4.84399e-07
-5.9648e-09 -7.59309e-08 7.71568e-08
-5.23266e-07 -7.09848e-07 9.99428e-07
4.11936e-08 -8.83461e-08 1.74634e-07
4.57582e-07 -2.62843e-07 4.58362e-07
1.07618e-06 -7.55315e-07 1.24954e-06
1.14232e-07 -2.41459e-07 3.6057e-07
-1.07498e-07 -8.92646e-07 1.34144e-06
4.769e-07 -2.20617e-07 3.10716e-07
-4.47253e-07 -6.52157e-07 7.87525e-07
2.31695e-07 -7.49599e-08 8.7209e-08
0.00167058 0.000304148 0.000707793
-2.5448e-07 -1.3591e-07 2.93367e-07
-4.35426e-07 -2.87144e-07 3.10087e-07
3.02517e-07 -2.41674e-07 4.04763e-07
2.75598e-07 -1.65902e-07 1.98586e-07
-2.34686e-07 -2.08129e-07 1.72275e-07
-1.01408e-07 -2.19112e-07 4.05505e-07
0.00199088 -0.00140883 7.49792e-05
0.0019415 0.000723098 -0.00116002
4.93101e-07 -1.44788e-07 3.46561e-07
6.59474e-07 -4.79407e-07 8.20994e-07
-5.5066e-08 -2.05119e-07 2.31904e-07
1.28449e-07 -6.7437e-07 1.03762e-06
2.35363e-07 -2.20623e-07 3.86428e-07
-5.07259e-07 -2.75452e-07 5.39343e-07
6.10515e-07 -7.81356e-07 1.19741e-06
0.000794734 0.000736182 -1.16788e-05
8.7993e-07 -5.36985e-07 8.90066e-07
3.59322e-08 -5.70391e-08 5.98481e-08
0.00087568 8.90159e-06 -0.000983116
-5.96764e-08 -9.64116e-08 1.58395e-07
0.00201305 -0.00117123 0.000152183
7.54482e-07 -7.13381e-07 1.13647e-06
5.01386e-07 -4.27992e-07 6.79573e-07
0.000794887 -0.00105869 0.000106405
3.49824e-07 -2.2878e-07 3.62246e-07
0.000738951 0.00119341 -7.04386e-05
-4.54161e-08 -2.57297e-07 3.34755e-07
8.82476e-08 -2.269e-07 3.46158e-07
5.79321e-07 -1.24141e-07 2.96302e-07
-1.15837e-07 -8.0584e-07 1.16304e-06
5.82788e-08 -1.10253e-07 1.29322e-07
0.000685743 -0.000158147 0.00080013
-1.45349e-07 -2.75649e-07 3.9728e-07
-2.06701e-07 -9.02011e-08 1.09633e-07
-1.69072e-07 -2.55452e-07 3.31072e-07
0.000443408 -0.000411995 0.00102834
7.72902e-07 -4.78725e-07 7.53227e-07
7.44368e-07 -6.11179e-07 9.61839e-07
-1.10991e-07 -2.62997e-07 3.43562e-07
2.17895e-07 -2.32279e-07 3.57466e-07
4.20595e-08 -1.88787e-08 8.41478e-09
0.000997173 0.000497848 7.33042e-05
0.000688203 -0.00100038 0.000163007
0.000736294 -0.000979136 8.24228e-05
8.08602e-07 -4.61244e-07 7.56658e-07
1.90893e-07 -1.97141e-07 3.0182e-07
3.53609e-07 -1.49738e-07 1.72206e-07
-1.33971e-07 -2.41632e-07 3.85703e-07
0.000749816 0.000498872 0.00012328
0.000415026 0.0003552 -0.000527063
-6.61349e-08 -1.71845e-08 9.43726e-09
-9.77013e-08 -1.31175e-08 1.28517e-08
4.90358e-09 -4.90509e-07 7.70301e-07
-4.54417e-08 -1.59769e-08 1.6845e-08
0.000634792 -0.000232326 -0.000288129
-5.87765e-08 -5.86048e-07 9.24572e-07
2.90176e-07 -1.1118e-07 1.80653e-07
2.20519e-07 -8.40835e-07 1.12367e-06
-3.40952e-09 -5.9728e-09 2.19472e-08
-1.91624e-07 -4.82351e-07 7.62948e-07
-1.70716e-07 -2.3432e-07 3.58808e-07