# vtk DataFile Version 4.2
vtk output
ASCII
DATASET UNSTRUCTURED_GRID

POINTS 343 double
0.00158428 0.00421512 -1.94113e-05
0.00306403 0.00502202 0.00213763
0 0.00419538 0.00112517
0.00272879 0.00198938 0.00190863
0.00731891 0.0025085 0.00494435
0.00731458 0.00392976 0.00631041
0.0107731 0.00492874 0.00486944
0.00879945 0.00497322 0.00358492
0.00967076 0.00342535 0.00679924
0.0070539 0.00508838 0.00491485
0.00591815 0.00119992 0.00992778
0.00747596 0.00218429 0.00781497
0.00593887 7.5092e-05 0.00824696
0.00284311 0.00203817 0.00799888
0.00606205 0.00261479 0.0099256
0.0098212 0.00658445 0.00683015
0.00905811 0.0063088 0.00507435
0.00319578 0.00222558 0.00510743
0 0.00143586 0.00417514
0.00225168 0.00349447 0.00400964
0.00967416 0.00333139 0.00304405
0.0109631 0.00237233 0.00493212
0 0.00270918 0.00154168
0.00589158 0.00151137 -7.07315e-05
0.00709249 0.00228724 0.00211088
0.00560495 0.00360269 0.00153463
0.00190401 2.29091e-05 0.0040371
0.0059332 7.55137e-05 0.00161537
0.00370475 0.00700009 -4.46105e-05
0.0027296 0.00808752 0.00191093
0.00577236 0.00632507 0.00157429
0.0112882 0.00814597 0.00786269
0.0112546 0.00497687 0.00788828
0.0118403 0.00625022 0.00580516
0.0140816 0.00902632 0.00402375
0.0106905 0.00778746 0.00483484
0.0120704 0.0101571 0.00402107
0.0112537 0.00813271 0.00187848
0.00499997 0.00310247 0.00689987
0.00627325 0.00374566 0.00824825
0.00551237 0.00167591 0.0059032
0.00705943 0.00776349 0.00759209
0.0028022 0.00804338 0.00795587
0.00397872 0.010049 0.0070789
0.00552094 0.00847274 0.00589098
0 0.00695361 0.00262895
0.00232153 0.00626889 0.0040594
0 0.0040177 0.00850214
0.00326579 0.00502709 0.00762213
0.00202119 0.00419946 0.0099756
0.0101224 0.00725958 0.00987739
0.00863827 0.0060896 0.0083141
0.00289096 0.00797814 0.00470638
0.00429349 0.00699873 0.00641609
0.00223766 0.00610673 0.00589872
0.0140859 0.00598845 0.00814241
0 0.00718191 0.00711644
0.00223416 0.00580243 -2.73231e-05
0 0.00577432 0.00158701
0.0140837 0.00736127 0.00694339
0.00404979 0.00340136 0.00994993
0.0140899 0.00162208 0.00400595
0.0113777 0.00210931 0.00184086
0.0118603 0.00367418 0.00385491
0.00527759 0.00172026 0.00406435
0.00212249 0.0100261 0.00578896
0.00398247 5.00477e-05 0.00708026
0.0086369 0.00429086 0.00827241
0.0140817 0.00745633 0.00402661
0.0120818 0.000153092 0.00402199
0.00472788 0.00293362 -5.67071e-05
0.00381832 0.00158896 0.00995302
0.00399692 5.04098e-05 0.00278359
0.00677789 0.00528499 0.00747287
0.00446645 0.00320511 0.00311272
0 0.00849157 0.00581511
0.00688215 0.00376373 0.00370244
0.00217172 0.00273625 -2.64257e-05
0.00817503 0.00842763 0.00990064
0.00842872 0.0101064 0.00840444
0.00593335 0.0100739 0.00824583
0.00566076 0.00857353 0.00993038
0.0140814 0.008668 0.00564261
0.00444138 0.00689189 0.00309579
0 0.00748929 0.00137438
0.0019338 0.00751334 -2.36621e-05
0 0.00287343 0.00335182
0 0.00580816 0.00831736
0 0.00429792 0.00253898
0.00357899 0.00434315 -4.30667e-05
0.00202045 0.00584412 0.00997555
0.00730606 0.00656769 0.00631238
0.0050839 0.00657519 0.00817241
0.00980743 0.00275206 0.00988091
0.0113228 0.00210347 0.00789965
0.00984131 0.000125357 0.00296214
0.0084999 0.00177322 0.00350953
0.0140872 0.00305712 0.00318228
0 0.00140616 0.00256446
0.00898877 0.00834145 0.00631301
0.00821428 0.00154142 -9.92859e-05
0.008521 0.00366102 0.00149912
0.00444477 0.0100549 0.00577041
0.0120627 0.0101571 0.00568632
0.00361664 0.00145208 -4.34565e-05
0.00843837 0.000107532 0.00139087
0.00885858 0.00840025 0.00350884
0.0120747 0.000153 0.00568758
0.00876199 0.00178486 0.00626066
0.00197938 0.00258813 0.00997601
0.0100386 0.00731025 -0.000122852
0.00728846 0.00778223 0.00207885
0.00838601 0.00620002 0.00149902
0 0.00686719 0.00578184
0.0140913 0.00159293 0.00239645
0.00250196 0.00364128 0.00637746
0.0140824 0.00866324 0.00245399
0.0118622 0.00634093 0.00398919
0.00843002 0.0101077 0.00138941
0.00983935 0.00012486 0.00680991
0.0140901 0.00162141 0.00564824
0.011845 0.00372501 0.00591783
0.00212461 2.56548e-05 0.00578967
0 0.0013659 0.00748679
0.00192828 2.33278e-05 0.00750598
0.0140829 0.00704794 0.00560839
0.00820235 0.00859613 -0.000101063
0 0.0075208 0.00859127
0.00192216 0.00750992 0.00997683
0.00596672 0.00828033 0.00355462
0.0121106 0.0101561 0.00736533
0.014084 0.00880616 0.00735219
0.00814776 0.00169069 0.00990113
0.010241 0.00431785 0.00987543
0 0.0057735 0.00666667
0.0019269 0.0100237 0.0075051
0 0.00863025 0.00752641
0.0121204 0.000155247 0.00235997
0.0140824 0.007136 0.00245982
0.0119297 0.00649496 0.00201795
0.0120021 0.00597676 0.00985547
0.0105691 0.00151002 0.0098724
0.0121223 0.000154926 0.00736712
0.0140924 0.00155169 0.00731395
0 0.00143551 0.00581971
0.00843695 0.000107024 0.00840536
0.00594786 7.5355e-05 0.00332751
0.0111949 0.00485178 0.00189844
0.0140853 0.0044803 0.00237062
0.00595796 0.0100745 0.00659419
0.0039918 0.0100489 0.00278222
0.00184985 2.24908e-05 0.00239578
0 0.00727418 0.00419576
0.0140843 0.00595396 0.00649337
0.0098311 0.0101264 0.00296067
0.0105853 0.0087704 0.00987158
0 0.00574334 0.00336387
0 0.0043297 0.00416652
0.00968876 0.00590604 0.00988253
0.0140876 0.00320507 0.00674394
0.00596372 7.54685e-05 0.00659578
0.00348842 0.0100428 0.00856886
0.0105666 0.00150308 -0.000127815
0.00814245 0.00676856 0.00990092
0.014086 0.00769914 0.00841528
0.0121396 0.00770732 0.00985335
0.00975895 0.00314783 -0.000118032
0.00474317 0.00580325 -5.71658e-05
0.0106158 0.00876689 -0.000129498
0.0105964 0.0101369 0.00125723
0.00815684 0.00697062 -9.9928e-05
0.00983965 0.00649674 0.00291302
0.0106076 0.000136685 0.00125785
0.00406454 0.00504841 0.00994994
0.00610577 0.0059086 0.00992516
0.00610599 0.00424187 0.0099251
0.0105974 0.0101348 0.00848839
0.00349133 4.35487e-05 0.00856993
0.0140835 0.0059244 0.00319451
0 0.00302218 0.00691532
0.0140884 0.00420006 0.00832623
0.0119943 0.00417309 -0.00014517
0.0140896 0.00289342 0.00137634
0 0.00244495 0.00857025
0.00344376 0.0086124 0.00995772
0.0106073 0.000136041 0.00848971
0.0119758 0.00277694 0.0098556
0.0124839 0.00435381 0.0098489
0.00799521 0.0101012 0.00573663
0.00731556 0.00767551 0.00494366
0.00795627 0.0101008 0.00411745
0.0098295 0.0101258 0.00680876
0.00425894 0.00696749 0.00994769
0.00587793 0.00440458 -7.09458e-05
0.0040005 5.02834e-05 0.00435655
0.00444897 5.61122e-05 0.00577243
0.0140878 0.00437849 0.000960113
0.00512908 0.00840188 0.00152485
0.014085 0.00451164 0.00399675
0.00940586 0.00589324 -0.000115055
0.0121085 0.0101575 0.0023593
0 0.00848692 0.00262374
0.0019017 0.0100237 0.00403636
0 0.00885053 0.00419359
0.00591307 0.00892507 -7.24661e-05
0.00592721 0.0100743 0.00161431
0.00705445 0.004881 0.00229266
0.0101865 0.00465259 -0.000123667
0.00796331 0.000101181 0.00411919
0.00800281 0.000101698 0.00573822
0.00184718 0.0100228 0.00239499
0.0120923 0.00260239 -0.000146648
0.0140854 0.00470368 0.0070469
0.0100306 0.0101292 0.00487801
0.00810264 0.00346596 0.00990103
0.00346777 4.37229e-05 0.00131432
0.0140919 0.00262936 0.00839412
0.00337628 0.00483311 0.00495877
0.00823098 0.00443525 -9.98357e-05
0.0117328 0.00595883 -0.000141806
0.00772487 0.0100974 0.00712682
0.0140846 0.00451189 0.00566192
0.00761814 0.0100965 0.00268162
0.0100412 0.000127328 0.00487897
0.0039958 0.010049 0.00435464
0 0.00452174 0.00721958
0.00637428 0.00729899 0.00992196
0.00773229 9.8147e-05 0.00712812
0.00508302 0.00513777 0.00353419
0.00599353 0.0100749 0.00493447
0.00599941 7.59981e-05 0.00493678
0.00517765 0.00528127 0.00611208
0 0.005744 0.00499998
0 0.00433013 0.00583333
0.00705391 0.00583347 -8.58409e-05
0.00703304 0.00642795 0.00346755
0.00762501 9.69878e-05 0.00268304
0.0140834 0.00592346 0.00482884
0.00520532 0.00647316 0.00478048
0.00810215 0.005101 0.00990107
0.0140855 0.00595487 0.00142091
0 0.00666667 0
0.0121159 0.00767617 -0.000146665
0.00470341 6.02177e-05 -5.63894e-05
0 0.01 0.00666667
0.00704852 0.0100882 0.00991366
0 0.00288419 0.00499914
0.014084 0.00767008 0.00120795
0.0140874 0.00684666 -0.000165789
0 0.005 0.01
0.00705451 0.00297442 -8.51253e-05
0 0.005 0
0.0140968 0.000186934 0.00316469
0.0140865 0.0101753 0.00649291
0.00591726 0.00734864 -7.21768e-05
0.0140872 0.00306751 0.00482859
0.00705757 9.06326e-05 -8.51971e-05
0 0 0.00666667
0.00535956 0.00368379 0.0051615
0.00705521 8.93731e-05 0.00991468
0.0140973 0.000186478 0.00649486
0 0 0.005
0.0123789 0.0101603 0.00107044
0.0140853 0.00895696 0.00105422
0.0140964 0.000186386 0.00482938
0.0140894 0.00518247 -0.000165029
0.00171866 0.0012415 -2.08544e-05
0 0.00122008 0.00122008
0 0.00333333 0.01
0 0.00666667 0.01
0.0123797 0.00893875 -0.00014986
0.0140856 0.0101751 0.0031632
0.00594183 0.0100743 0.00332581
0.0140918 0.00684575 0.00982193
0 0.00333333 0
0 0.00122008 0.00877992
0.00171763 2.08713e-05 0.00875978
0.0017172 0.00124091 0.00997916
0.0123797 0.0101581 0.00862897
0.00171675 0.00880078 0.00997919
0 0.00877992 0.00877992
0.0140872 0.00895507 0.00860401
0.00940195 0.0101208 -0.000115768
0.0140945 0.00140782 0.00105423
0.00171664 0.0100211 0.00875894
0.0123821 0.00893615 0.00984947
0.0140939 0.00518085 0.00982239
0 0 0.00333333
0.00941084 0.00012103 -0.000113975
0.0123903 0.000160696 0.00107023
0.00170701 2.09776e-05 0.00119083
0 0.00877992 0.00122008
0.00171609 0.00880134 -2.11189e-05
0.00170421 0.010021 0.00119031
0.0140962 0.00140659 0.00860467
0.0123907 0.00138119 0.00985021
0.00940892 0.000119877 0.0098866
0.0123895 0.00138256 -0.000149799
0.0123912 0.000159774 0.00863061
0.0140924 0.00351795 -0.000164869
0.00469676 0.010058 0.00994167
0.00346284 0.0100425 0.00131342
0.00940022 0.0101191 0.00988553
0.0140956 0.00351518 0.00982203
0 0.01 0.005
0.00369651 0.00853303 -4.4823e-05
0.0140854 0.0101752 0.00482883
0 0.01 0.00333333
0 0.00166667 0
0.0140985 0.000187133 0.00149998
0 0.00166667 0.01
0 0.00833333 0
0.0140875 0.00851244 -0.000166851
0.0140998 0.000186596 0.00815995
0.0140875 0.010177 0.00150013
0.0140889 0.0101753 0.00815828
0.0023459 0.0100286 0.00997109
0 0.01 0.00833333
0.0117521 0.010152 -0.000142884
0.0117631 0.000153126 -0.000142524
0.0117636 0.000151943 0.00985838
0.0117529 0.0101494 0.00985729
0 0 0.00833333
0.0140916 0.00850842 0.00982285
0.00234955 2.97398e-05 -2.83234e-05
0 0 0.00166667
0.00469763 0.0100585 -5.73427e-05
0.0140993 0.00185339 0.00982327
0.0140967 0.00185508 -0.000165599
0.00234732 2.89987e-05 0.00997176
0.00234539 0.0100288 -2.88482e-05
0 0.01 0.00166667
0.0140931 0.0101768 0.00982385
0 0 0.01
0.0140902 0.0101779 -0.000167571
0.0141046 0.000185827 0.00982574
0 0.01 0.01
0.0141024 0.000186821 -0.000166863
0 0.01 0
0 0 0
0.0070504 0.0100894 -8.69989e-05
0.00470092 5.92675e-05 0.00994277
0 0.00833333 0.01

CELLS 343 686
1 0
1 1
1 2
1 3
1 4
1 5
1 6
1 7
1 8
1 9
1 10
1 11
1 12
1 13
1 14
1 15
1 16
1 17
1 18
1 19
1 20
1 21
1 22
1 23
1 24
1 25
1 26
1 27
1 28
1 29
1 30
1 31
1 32
1 33
1 34
1 35
1 36
1 37
1 38
1 39
1 40
1 41
1 42
1 43
1 44
1 45
1 46
1 47
1 48
1 49
1 50
1 51
1 52
1 53
1 54
1 55
1 56
1 57
1 58
1 59
1 60
1 61
1 62
1 63
1 64
1 65
1 66
1 67
1 68
1 69
1 70
1 71
1 72
1 73
1 74
1 75
1 76
1 77
1 78
1 79
1 80
1 81
1 82
1 83
1 84
1 85
1 86
1 87
1 88
1 89
1 90
1 91
1 92
1 93
1 94
1 95
1 96
1 97
1 98
1 99
1 100
1 101
1 102
1 103
1 104
1 105
1 106
1 107
1 108
1 109
1 110
1 111
1 112
1 113
1 114
1 115
1 116
1 117
1 118
1 119
1 120
1 121
1 122
1 123
1 124
1 125
1 126
1 127
1 128
1 129
1 130
1 131
1 132
1 133
1 134
1 135
1 136
1 137
1 138
1 139
1 140
1 141
1 142
1 143
1 144
1 145
1 146
1 147
1 148
1 149
1 150
1 151
1 152
1 153
1 154
1 155
1 156
1 157
1 158
1 159
1 160
1 161
1 162
1 163
1 164
1 165
1 166
1 167
1 168
1 169
1 170
1 171
1 172
1 173
1 174
1 175
1 176
1 177
1 178
1 179
1 180
1 181
1 182
1 183
1 184
1 185
1 186
1 187
1 188
1 189
1 190
1 191
1 192
1 193
1 194
1 195
1 196
1 197
1 198
1 199
1 200
1 201
1 202
1 203
1 204
1 205
1 206
1 207
1 208
1 209
1 210
1 211
1 212
1 213
1 214
1 215
1 216
1 217
1 218
1 219
1 220
1 221
1 222
1 223
1 224
1 225
1 226
1 227
1 228
1 229
1 230
1 231
1 232
1 233
1 234
1 235
1 236
1 237
1 238
1 239
1 240
1 241
1 242
1 243
1 244
1 245
1 246
1 247
1 248
1 249
1 250
1 251
1 252
1 253
1 254
1 255
1 256
1 257
1 258
1 259
1 260
1 261
1 262
1 263
1 264
1 265
1 266
1 267
1 268
1 269
1 270
1 271
1 272
1 273
1 274
1 275
1 276
1 277
1 278
1 279
1 280
1 281
1 282
1 283
1 284
1 285
1 286
1 287
1 288
1 289
1 290
1 291
1 292
1 293
1 294
1 295
1 296
1 297
1 298
1 299
1 300
1 301
1 302
1 303
1 304
1 305
1 306
1 307
1 308
1 309
1 310
1 311
1 312
1 313
1 314
1 315
1 316
1 317
1 318
1 319
1 320
1 321
1 322
1 323
1 324
1 325
1 326
1 327
1 328
1 329
1 330
1 331
1 332
1 333
1 334
1 335
1 336
1 337
1 338
1 339
1 340
1 341
1 342

CELL_TYPES 343
1
1
1
1
1
1
1
1
1
1
1
1
1
1
1
1
1
1
1
1
1
1
1
1
1
1
1
1
1
1
1
1
1
1
1
1
1
1
1
1
1
1
1
1
1
1
1
1
1
1
1
1
1
1
1
1
1
1
1
1
1
1
1
1
1
1
1
1
1
1
1
1
1
1
1
1
1
1
1
1
1
1
1
1
1
1
1
1
1
1
1
1
1
1
1
1
1
1
1
1
1
1
1
1
1
1
1
1
1
1
1
1
1
1
1
1
1
1
1
1
1
1
1
1
1
1
1
1
1
1
1
1
1
1
1
1
1
1
1
1
1
1
1
1
1
1
1
1
1
1
1
1
1
1
1
1
1
1
1
1
1
1
1
1
1
1
1
1
1
1
1
1
1
1
1
1
1
1
1
1
1
1
1
1
1
1
1
1
1
1
1
1
1
1
1
1
1
1
1
1
1
1
1
1
1
1
1
1
1
1
1
1
1
1
1
1
1
1
1
1
1
1
1
1
1
1
1
1
1
1
1
1
1
1
1
1
1
1
1
1
1
1
1
1
1
1
1
1
1
1
1
1
1
1
1
1
1
1
1
1
1
1
1
1
1
1
1
1
1
1
1
1
1
1
1
1
1
1
1
1
1
1
1
1
1
1
1
1
1
1
1
1
1
1
1
1
1
1
1
1
1
1
1
1
1
1
1
1
1
1
1
1
1
1
1
1
1
1
1
1
1
1
1
1
1
1
1
1
1
1
1
1
1
1
1
1
1
1
1
1
1
1
1

POINT_DATA 343
FIELD FieldData 8

NodeID_(#) 1 343 int
0
1
2
3
4
5
6
7
8
9
10
11
12
13
14
15
16
17
18
19
20
21
22
23
24
25
26
27
28
29
30
31
32
33
34
35
36
37
38
39
40
41
42
43
44
45
46
47
48
49
50
51
52
53
54
55
56
57
58
59
60
61
62
63
64
65
66
67
68
69
70
71
72
73
74
75
76
77
78
79
80
81
82
83
84
85
86
87
88
89
90
91
92
93
94
95
96
97
98
99
100
101
102
103
104
105
106
107
108
109
110
111
112
113
114
115
116
117
118
119
120
121
122
123
124
125
126
127
128
129
130
131
132
133
134
135
136
137
138
139
140
141
142
143
144
145
146
147
148
149
150
151
152
153
154
155
156
157
158
159
160
161
162
163
164
165
166
167
168
169
170
171
172
173
174
175
176
177
178
179
180
181
182
183
184
185
186
187
188
189
190
191
192
193
194
195
196
197
198
199
200
201
202
203
204
205
206
207
208
209
210
211
212
213
214
215
216
217
218
219
220
221
222
223
224
225
226
227
228
229
230
231
232
233
234
235
236
237
238
239
240
241
242
243
244
245
246
247
248
249
250
251
252
253
254
255
256
257
258
259
260
261
262
263
264
265
266
267
268
269
270
271
272
273
274
275
276
277
278
279
280
281
282
283
284
285
286
287
288
289
290
291
292
293
294
295
296
297
298
299
300
301
302
303
304
305
306
307
308
309
310
311
312
313
314
315
316
317
318
319
320
321
322
323
324
325
326
327
328
329
330
331
332
333
334
335
336
337
338
339
340
341
342

Component_(#) 1 343 int
0
0
0
0
0
0
0
0
0
0
0
0
0
0
0
0
0
0
0
0
0
0
0
0
0
0
0
0
0
0
0
0
0
0
0
0
0
0
0
0
0
0
0
0
0
0
0
0
0
0
0
0
0
0
0
0
0
0
0
0
0
0
0
0
0
0
0
0
0
0
0
0
0
0
0
0
0
0
0
0
0
0
0
0
0
0
0
0
0
0
0
0
0
0
0
0
0
0
0
0
0
0
0
0
0
0
0
0
0
0
0
0
0
0
0
0
0
0
0
0
0
0
0
0
0
0
0
0
0
0
0
0
0
0
0
0
0
0
0
0
0
0
0
0
0
0
0
0
0
0
0
0
0
0
0
0
0
0
0
0
0
0
0
0
0
0
0
0
0
0
0
0
0
0
0
0
0
0
0
0
0
0
0
0
0
0
0
0
0
0
0
0
0
0
0
0
0
0
0
0
0
0
0
0
0
0
0
0
0
0
0
0
0
0
0
0
0
0
0
0
0
0
0
0
0
0
0
0
0
0
0
0
0
0
0
0
0
0
0
0
0
0
0
0
0
0
0
0
0
0
0
0
0
0
0
0
0
0
0
0
0
0
0
0
0
0
0
0
0
0
0
0
0
0
0
0
0
0
0
0
0
0
0
0
0
0
0
0
0
0
0
0
0
0
0
0
0
0
0
0
0
0
0
0
0
0
0
0
0
0
0
0
0
0
0
0
0
0
0
0
0
0
0
0
0
0
0
0
0
0
0
0
0
0
0
0
0
0
0
0
0
0
0

NodalMass_(kg) 1 343 double
3.15563e-06
1.41304e-05
2.20912e-06
1.71484e-05
8.42e-06
9.09306e-06
1.01179e-05
7.52198e-06
6.81096e-06
5.58223e-06
3.10888e-06
1.07575e-05
4.87011e-06
1.64955e-05
3.0246e-06
8.05984e-06
6.703e-06
1.0877e-05
4.18978e-06
8.16106e-06
6.14143e-06
1.17902e-05
2.23114e-06
4.25176e-06
1.09915e-05
7.41467e-06
4.21871e-06
3.92484e-06
3.08766e-06
1.31268e-05
7.72627e-06
1.65404e-05
1.19037e-05
7.97564e-06
3.81683e-06
1.11001e-05
3.81317e-06
1.39137e-05
6.37414e-06
8.00975e-06
7.6712e-06
1.21135e-05
1.6399e-05
2.78633e-06
8.93599e-06
2.58087e-06
7.57362e-06
4.23241e-06
1.31286e-05
3.80168e-06
2.7746e-06
7.16776e-06
1.21307e-05
5.11765e-06
8.19728e-06
4.58094e-06
2.79503e-06
3.26126e-06
4.12443e-06
2.11915e-06
3.35177e-06
3.61669e-06
1.56838e-05
7.33679e-06
8.24695e-06
5.00369e-06
2.82625e-06
7.20276e-06
3.26815e-06
4.18751e-06
2.02785e-06
2.42152e-06
3.11835e-06
5.97459e-06
5.87101e-06
4.09374e-06
5.45463e-06
2.28825e-06
4.49759e-06
4.38192e-06
4.50892e-06
4.39234e-06
4.27273e-06
5.32031e-06
1.53201e-06
2.38869e-06
2.02885e-06
4.38798e-06
3.17972e-06
3.14298e-06
4.61567e-06
5.87645e-06
8.18088e-06
2.48341e-06
1.53815e-05
3.49683e-06
7.35227e-06
2.01314e-06
2.0408e-06
7.98183e-06
4.41293e-06
7.1389e-06
1.20123e-06
5.03343e-06
1.61257e-06
4.12601e-06
8.73748e-06
4.37849e-06
7.97173e-06
2.13557e-06
3.38137e-06
9.48623e-06
7.40262e-06
1.80226e-06
2.10222e-06
7.98889e-06
1.87983e-06
7.44814e-06
4.19782e-06
2.37156e-06
4.31705e-06
6.06441e-06
4.30905e-06
2.16843e-06
1.8986e-06
1.81294e-06
3.89762e-06
2.44299e-06
1.65628e-06
8.01374e-06
1.64513e-06
2.3931e-06
3.01363e-06
2.99431e-06
1.36541e-06
1.87293e-06
2.09622e-06
1.94762e-06
1.87618e-06
6.37913e-06
4.58628e-06
2.02767e-06
1.61999e-06
2.41284e-06
3.8865e-06
4.44973e-06
2.29839e-06
1.17349e-05
3.11811e-06
1.354e-06
3.45063e-06
1.81846e-06
2.9382e-06
1.37381e-06
2.41464e-06
2.10451e-06
2.63927e-06
2.14166e-06
1.7943e-06
3.19976e-06
1.36989e-06
2.43489e-06
2.08158e-06
1.3601e-06
2.17203e-06
1.89924e-06
3.16996e-06
2.6119e-06
2.37677e-06
1.60225e-06
1.90684e-06
5.49206e-06
1.87878e-06
3.14313e-06
2.97301e-06
1.18454e-06
1.89263e-06
2.04166e-06
2.73572e-06
2.42405e-06
3.23083e-06
3.19752e-06
3.2142e-06
1.94492e-06
1.61196e-06
1.86876e-06
3.22435e-06
2.1114e-06
2.96917e-06
6.15288e-06
2.3097e-06
2.39729e-06
2.38029e-06
2.64508e-06
1.66557e-06
1.82377e-06
2.06583e-06
5.73271e-06
2.08467e-06
2.18324e-06
2.43522e-06
3.1188e-06
3.17316e-06
2.05447e-06
1.9592e-06
3.05718e-06
6.44327e-06
2.08796e-06
2.72615e-06
2.15709e-06
1.86812e-06
2.0028e-06
2.10999e-06
2.88994e-06
2.3222e-06
2.3979e-06
1.97629e-06
6.4127e-06
2.16225e-06
3.29198e-06
2.10223e-06
2.66566e-06
1.94415e-06
2.91865e-06
2.58116e-06
2.11703e-06
2.09534e-06
1.91719e-06
7.06046e-06
2.25203e-06
2.06378e-06
6.28159e-06
2.12147e-06
2.90924e-06
2.12921e-06
6.4487e-06
1.41701e-06
2.0682e-06
6.58062e-06
2.52584e-06
2.39732e-06
7.42191e-07
2.22368e-06
7.06751e-07
7.00657e-07
8.93749e-07
2.53536e-06
2.26535e-06
1.33607e-06
7.84725e-07
2.32303e-06
6.06694e-07
6.68276e-07
6.84307e-07
2.51242e-06
2.31629e-06
7.8367e-07
6.80839e-07
6.22692e-06
6.7471e-07
6.65305e-07
7.01158e-07
1.8232e-06
1.90695e-06
6.86722e-07
7.04792e-07
1.86445e-06
2.28572e-06
6.8045e-07
7.16005e-07
1.82373e-06
6.01079e-07
2.02791e-06
7.4579e-07
5.74423e-07
1.80052e-06
1.454e-06
2.2702e-06
1.80636e-06
2.15356e-06
1.79089e-06
1.79456e-06
6.8231e-07
2.24737e-06
1.45239e-06
1.79556e-06
6.97875e-07
6.24265e-07
6.62717e-07
1.44627e-06
1.40138e-06
2.15258e-06
1.82851e-06
1.3994e-06
1.43932e-06
2.19226e-06
6.97732e-07
1.77726e-06
1.79162e-06
6.54258e-07
7.3397e-07
2.34895e-06
7.10392e-07
6.56982e-07
6.26314e-07
2.18926e-06
6.12493e-07
6.03901e-07
5.92831e-07
5.12031e-07
5.11667e-07
4.9467e-07
4.97016e-07
4.96269e-07
5.33079e-07
4.94191e-07
4.97855e-07
4.86862e-07
4.90626e-07
4.94649e-07
4.94954e-07
4.91922e-07
4.89615e-07
4.96354e-07
4.95189e-07
4.82188e-07
1.10854e-06
5.3299e-07
5.44763e-07
5.36655e-07
5.15417e-07
5.01772e-07
5.53774e-07
5.53774e-07
5.53774e-07
5.53774e-07
5.53774e-07
5.53774e-07
5.50785e-07
5.50785e-07
7.45291e-07
7.11668e-07
4.9897e-07

NodalForce_(N) 3 343 double
-3.41744e-06 -3.44094e-07 2.187e-07
-2.93602e-05 -3.5847e-06 2.40119e-06
7.61181e-05 -0.000193682 0.000405083
-3.66091e-05 -4.08364e-06 2.73356e-06
-5.18016e-05 -1.2357e-05 6.09885e-06
-5.36888e-05 -1.18716e-05 6.75859e-06
-8.00189e-05 -2.70318e-05 1.48039e-05
-4.66668e-05 -1.3841e-05 7.61608e-06
-5.45806e-05 -1.56337e-05 8.55074e-06
-2.86495e-05 -6.56426e-06 3.69633e-06
-1.80711e-05 -3.55203e-06 2.0721e-06
-7.31101e-05 -1.67448e-05 9.20888e-06
-2.89837e-05 -5.89211e-06 2.93325e-06
-4.05231e-05 -3.45247e-06 2.94202e-06
-1.69076e-05 -3.10486e-06 2.10758e-06
-5.57807e-05 -1.74069e-05 1.01095e-05
-4.12899e-05 -1.26152e-05 7.02796e-06
-2.85058e-05 -3.14431e-06 2.00793e-06
0.00156258 0.000312804 0.000393109
-1.39571e-05 -1.13579e-06 7.64342e-07
-4.52541e-05 -1.44999e-05 7.57471e-06
-0.000107181 -3.52578e-05 1.81444e-05
0.00225372 0.00035419 0.000867732
-1.95029e-05 -5.26701e-06 2.71733e-06
-6.19501e-05 -1.6556e-05 9.33407e-06
-2.96844e-05 -6.33534e-06 4.38167e-06
-7.23351e-06 -5.08606e-07 4.51984e-07
-2.05324e-05 -4.95956e-06 2.70955e-06
-6.34039e-06 -1.13606e-06 8.51391e-07
-2.09252e-05 -2.45425e-06 1.96874e-06
-2.72378e-05 -5.8299e-06 4.52889e-06
-0.000124494 -4.64945e-05 2.67973e-05
-0.000105242 -3.39984e-05 1.95453e-05
-6.6271e-05 -2.4777e-05 1.37494e-05
-3.19793e-05 -1.60364e-05 8.41323e-06
-7.37011e-05 -2.87604e-05 1.55618e-05
-2.4591e-05 -1.26959e-05 6.43773e-06
-8.76926e-05 -4.03007e-05 2.1722e-05
-2.65281e-05 -4.2323e-06 2.47227e-06
-4.25049e-05 -7.65701e-06 5.43831e-06
-3.77371e-05 -7.31078e-06 3.37432e-06
-5.70239e-05 -1.45184e-05 8.94001e-06
-3.12786e-05 -3.34536e-06 2.0507e-06
-6.10668e-06 -1.28765e-06 5.79314e-07
-2.96509e-05 -7.17452e-06 3.56474e-06
0.000670134 -0.000552028 -0.000191617
-1.18974e-05 -1.32833e-06 8.68848e-07
0.000728026 9.61639e-05 -0.000469769
-3.2133e-05 -3.33437e-06 2.41419e-06
-6.17281e-06 -4.89322e-07 3.59149e-07
-2.04927e-05 -6.34324e-06 3.94542e-06
-4.64049e-05 -1.20986e-05 7.80157e-06
-2.24124e-05 -2.31613e-06 1.66801e-06
-1.49672e-05 -2.0636e-06 1.29638e-06
-1.30531e-05 -1.2215e-06 8.80238e-07
-4.82952e-05 -1.9041e-05 1.06448e-05
0.000600706 -0.000472908 -0.000225274
-4.50024e-06 -5.78742e-07 3.56616e-07
0.00223588 -0.000724828 0.00104126
-2.05629e-05 -8.7668e-06 4.86749e-06
-1.19434e-05 -1.47819e-06 1.26228e-06
-4.1904e-05 -1.63758e-05 8.3902e-06
-0.000139784 -5.11042e-05 2.64407e-05
-6.61602e-05 -2.40462e-05 1.27884e-05
-3.7628e-05 -7.52269e-06 3.47719e-06
-6.11016e-06 -4.80726e-07 4.00114e-07
-1.11327e-05 -1.70647e-06 8.05226e-07
-5.12818e-05 -1.26735e-05 7.94394e-06
-2.95914e-05 -1.36273e-05 7.29852e-06
-4.48021e-05 -1.54049e-05 7.78649e-06
-6.68435e-06 -1.35396e-06 8.897e-07
-8.93223e-06 -1.19692e-06 8.42595e-07
-1.16469e-05 -2.06012e-06 9.19059e-07
-3.13171e-05 -6.23132e-06 4.21355e-06
-2.01452e-05 -3.11964e-06 1.84418e-06
0.000959329 -0.000674065 -0.000639393
-2.85618e-05 -6.55784e-06 3.6733e-06
-3.56684e-06 -3.16399e-07 2.30694e-07
-2.52976e-05 -7.25526e-06 4.54822e-06
-2.18481e-05 -7.70637e-06 4.5695e-06
-1.58398e-05 -4.35917e-06 2.5889e-06
-1.70566e-05 -3.90647e-06 2.3984e-06
-3.79143e-05 -1.77509e-05 9.57951e-06
-1.50592e-05 -2.44258e-06 1.6371e-06
0.0013055 0.000679279 -3.24617e-05
-2.63981e-06 -2.14261e-07 1.83173e-07
0.00129475 0.000107403 -0.000452343
0.00222012 -6.61586e-05 -0.000455771
0.00136802 0.000489751 -0.00050134
-7.11855e-06 -1.20136e-06 8.6424e-07
-7.18952e-06 -5.04494e-07 4.30253e-07
-2.97061e-05 -7.21507e-06 4.2608e-06
-3.06112e-05 -4.36657e-06 3.62404e-06
-2.21022e-05 -5.97104e-06 3.52063e-06
-0.000155057 -4.8176e-05 2.5808e-05
-3.03942e-05 -9.506e-06 4.7146e-06
-5.2319e-05 -1.49783e-05 7.48618e-06
-2.17508e-05 -8.85031e-06 4.6418e-06
0.00201632 0.00072186 -0.00014498
-4.48935e-05 -1.53096e-05 8.17399e-06
-2.84019e-05 -9.08841e-06 4.8319e-06
-4.41033e-05 -1.35243e-05 7.90114e-06
-2.87277e-06 -7.31475e-07 3.5347e-07
-3.42108e-05 -1.66233e-05 8.60311e-06
-4.48578e-06 -8.9733e-07 4.87183e-07
-3.02638e-05 -8.98602e-06 4.86596e-06
-4.3794e-05 -1.66794e-05 8.78665e-06
-4.82724e-05 -1.59181e-05 8.08647e-06
-6.21111e-05 -1.65957e-05 8.28083e-06
-3.64892e-06 -1.93133e-07 2.08256e-07
-1.86472e-05 -8.08828e-06 4.67311e-06
-3.82192e-05 -1.26775e-05 7.4449e-06
-3.80057e-05 -1.21461e-05 7.68525e-06
0.00120227 0.000504592 7.96082e-05
-2.37064e-05 -9.59965e-06 4.91015e-06
-1.56983e-05 -1.37684e-06 1.09982e-06
-1.54384e-05 -7.93939e-06 4.18364e-06
-5.8946e-05 -2.34139e-05 1.26924e-05
-1.5956e-05 -7.98739e-06 4.11912e-06
-2.23155e-05 -6.33232e-06 3.08441e-06
-5.14924e-05 -1.93866e-05 1.00371e-05
-5.71302e-05 -1.96705e-05 1.0637e-05
-8.27271e-06 -6.57879e-07 4.73278e-07
0.00155877 0.000192353 0.000220408
-3.35227e-06 -2.82408e-07 1.46366e-07
-1.73322e-05 -7.52207e-06 4.09843e-06
-1.53817e-05 -6.78944e-06 3.91486e-06
0.0019125 0.000498734 -0.000571807
-2.33583e-06 -1.77261e-07 1.48801e-07
-2.70338e-05 -7.49016e-06 3.69425e-06
-1.18045e-05 -5.43968e-06 2.91193e-06
-2.19323e-05 -9.85052e-06 5.43828e-06
-2.3709e-05 -5.58753e-06 3.25438e-06
-2.59476e-05 -7.23594e-06 4.48866e-06
0.00106907 0.00026861 0.000329071
-2.19039e-06 -1.73003e-07 1.55283e-07
0.00175206 -0.000527983 0.000392685
-2.0253e-05 -7.32399e-06 3.72055e-06
-1.66559e-05 -7.85501e-06 4.20667e-06
-4.78034e-05 -2.04396e-05 1.1044e-05
-4.28216e-05 -1.44231e-05 8.51411e-06
-2.02869e-05 -5.80289e-06 3.23024e-06
-1.84742e-05 -5.94542e-06 2.99993e-06
-2.96885e-05 -1.0802e-05 5.68295e-06
0.00154906 0.000353463 -0.000616137
-3.75294e-05 -9.23389e-06 4.77016e-06
-1.26682e-05 -2.93606e-06 1.32748e-06
-8.9776e-05 -3.44414e-05 1.86724e-05
-3.12642e-05 -1.34252e-05 7.07032e-06
-4.40472e-06 -1.37703e-06 6.27992e-07
-6.55325e-06 -1.67492e-06 8.11e-07
-2.93791e-06 -2.29642e-07 1.86596e-07
0.0027585 0.00086025 -3.30005e-05
-1.40546e-05 -5.73702e-06 3.1424e-06
-1.17405e-05 -5.85814e-06 2.87026e-06
-1.50661e-05 -5.4029e-06 3.20374e-06
0.00146312 0.000492255 -0.000740072
0.00186474 0.000461022 0.00115531
-1.36467e-05 -3.77434e-06 2.4656e-06
-3.67376e-05 -1.38436e-05 7.42655e-06
-8.02047e-06 -1.70548e-06 7.40447e-07
-4.97428e-06 -9.36762e-07 5.59271e-07
-1.7074e-05 -6.33072e-06 3.32665e-06
-8.35607e-06 -2.04694e-06 1.41462e-06
-2.1409e-05 -8.92414e-06 4.98311e-06
-1.653e-05 -6.04104e-06 3.54781e-06
-2.21808e-05 -7.87637e-06 4.45872e-06
-7.27864e-06 -1.38974e-06 1.15824e-06
-1.26201e-05 -6.43096e-06 3.52982e-06
-8.04367e-06 -4.46632e-06 2.26978e-06
-8.55008e-06 -3.10647e-06 1.94698e-06
-3.41174e-05 -1.22623e-05 6.88091e-06
-1.69241e-05 -5.88115e-06 3.04145e-06
-1.04578e-05 -1.20933e-06 1.16854e-06
-1.45641e-05 -2.39806e-06 2.04603e-06
-6.2281e-06 -1.03428e-06 8.42582e-07
-1.2113e-05 -5.02521e-06 2.81592e-06
-7.18008e-06 -1.07943e-06 4.97813e-07
-2.61542e-05 -1.15629e-05 6.15876e-06
0.00182967 9.23348e-05 0.000368962
-3.67488e-05 -1.36648e-05 7.59761e-06
-2.60054e-05 -1.09081e-05 5.95953e-06
-3.37862e-05 -1.43457e-05 7.4051e-06
0.00146238 -3.64852e-06 -0.000561473
-3.8746e-06 -6.12278e-07 4.22151e-07
-1.93319e-05 -5.63596e-06 2.87467e-06
-3.4473e-05 -1.07586e-05 6.08022e-06
-2.19853e-05 -7.2838e-06 4.19549e-06
-1.29105e-05 -4.98943e-06 2.36756e-06
-2.7952e-05 -8.01066e-06 4.23038e-06
-9.32579e-06 -3.91647e-06 1.80452e-06
-1.34171e-05 -5.63703e-06 2.84359e-06
-7.69847e-06 -8.35619e-07 8.93707e-07
-1.00244e-05 -2.35569e-06 1.7567e-06
-6.29281e-06 -1.12557e-06 5.01804e-07
-7.86743e-06 -1.3847e-06 6.30559e-07
-2.02309e-05 -8.98523e-06 4.73192e-06
-1.54352e-05 -4.34259e-06 2.7477e-06
-2.15537e-05 -8.91336e-06 4.77169e-06
-1.23876e-05 -4.64371e-06 2.8147e-06
-1.49356e-05 -8.26396e-06 4.15221e-06
0.00152718 -9.13802e-05 -0.000110044
-3.46484e-06 -3.23632e-07 2.2046e-07
0.00151535 -0.000842565 -7.5345e-05
-5.33223e-06 -2.04698e-06 1.22204e-06
-7.98872e-06 -3.31256e-06 1.68378e-06
-3.108e-05 -7.59029e-06 4.89594e-06
-1.39774e-05 -5.3201e-06 3.06568e-06
-1.99004e-05 -5.3906e-06 2.50595e-06
-1.64058e-05 -4.23744e-06 1.89857e-06
-1.85989e-06 -1.97366e-07 1.10873e-07
-1.77545e-05 -7.18617e-06 3.82805e-06
-2.29812e-05 -8.91485e-06 4.87828e-06
-1.54243e-05 -7.12525e-06 3.53604e-06
-1.67344e-05 -3.78185e-06 2.48095e-06
-7.51141e-06 -1.26457e-06 6.97642e-07
-2.38512e-05 -8.6502e-06 4.70464e-06
-1.57408e-05 -1.92057e-06 1.33515e-06
-1.17915e-05 -3.75342e-06 2.38608e-06
-2.365e-05 -1.04263e-05 5.84843e-06
-9.19965e-06 -3.2554e-06 1.69403e-06
-2.84983e-05 -1.13363e-05 6.12171e-06
-7.00515e-06 -3.11216e-06 1.46801e-06
-2.68821e-05 -8.06346e-06 3.96742e-06
-5.20735e-06 -1.22608e-06 5.60279e-07
0.00205255 0.000289638 0.000470815
-9.84869e-06 -1.94542e-06 1.47088e-06
-1.45021e-05 -3.51523e-06 1.65058e-06
-2.51766e-05 -4.33596e-06 2.5975e-06
-6.85384e-06 -2.36067e-06 1.02817e-06
-1.18375e-05 -2.64649e-06 1.11839e-06
-2.39698e-05 -3.83629e-06 2.43643e-06
0.00211525 -0.000775294 -1.47853e-05
0.00240603 0.000569014 -0.000973132
-8.92395e-06 -2.4806e-06 1.83872e-06
-2.90742e-05 -7.43519e-06 4.39197e-06
-9.67724e-06 -2.65889e-06 1.30881e-06
-2.0471e-05 -8.68469e-06 4.69756e-06
-2.30198e-05 -4.02148e-06 2.37373e-06
-1.68118e-05 -3.72063e-06 2.68319e-06
-2.20369e-05 -1.02065e-05 5.3931e-06
0.000467316 0.00069728 -0.000329471
-1.49413e-05 -7.40458e-06 4.0465e-06
-2.82136e-06 -7.24699e-07 4.06616e-07
0.000583726 0.000319508 -0.000951066
-3.96706e-06 -1.22239e-06 7.66658e-07
0.00193684 -0.000999303 0.000212587
-1.9023e-05 -9.5232e-06 5.0417e-06
-1.1356e-05 -5.6929e-06 3.0586e-06
0.000794835 -0.000886573 9.30983e-05
-1.18072e-05 -3.30428e-06 2.01316e-06
0.000730221 0.00108506 -0.000122617
-8.04473e-06 -3.11571e-06 1.57705e-06
-5.7525e-06 -2.882e-06 1.52172e-06
-7.86425e-06 -2.22438e-06 1.6076e-06
-2.58259e-05 -1.0092e-05 5.34503e-06
-4.65213e-06 -1.4027e-06 7.55535e-07
0.000836236 -3.63734e-05 0.000771822
-2.62208e-05 -4.4437e-06 2.48884e-06
-4.90649e-06 -1.08824e-06 5.83474e-07
-8.46115e-06 -3.04901e-06 1.56116e-06
0.000571536 -0.000359554 0.000932651
-1.10654e-05 -6.45152e-06 3.2684e-06
-1.4886e-05 -8.13719e-06 4.19718e-06
-8.50146e-06 -3.16676e-06 1.61498e-06
-6.50738e-06 -3.04619e-06 1.63707e-06
-2.46496e-06 -3.23467e-07 1.44408e-07
0.00144697 0.000313386 0.000350379
0.000799805 -0.000985716 0.000114752
0.00072497 -0.000945826 9.66879e-05
-1.16161e-05 -6.37749e-06 3.36047e-06
-4.63627e-06 -2.56704e-06 1.31083e-06
-5.72713e-06 -2.15414e-06 8.98537e-07
-7.85011e-06 -3.05792e-06 1.7752e-06
0.000602937 0.000679737 -8.96465e-05
0.000659972 0.00028179 -0.000523964
-2.33018e-06 -2.3606e-07 9.51996e-08
-3.47077e-06 -2.68236e-07 2.0745e-07
-1.37577e-05 -6.18438e-06 3.44088e-06
-2.57939e-06 -2.50019e-07 1.62416e-07
0.00100483 -0.000564571 -0.000202521
-1.67745e-05 -7.40216e-06 4.12689e-06
-2.78864e-06 -1.58174e-06 8.15632e-07
-2.49333e-05 -1.04207e-05 5.29837e-06