# vtk DataFile Version 4.2
vtk output
ASCII
DATASET UNSTRUCTURED_GRID

POINTS 343 double
0.00161171 0.00421626 -2.06266e-05
0.00311705 0.00502403 0.00213528
0 0.00419538 0.00112517
0.00277473 0.00199114 0.0019066
0.00744698 0.00251132 0.00493951
0.0074436 0.00393225 0.00630403
0.010975 0.0049292 0.00486342
0.00896142 0.00497481 0.00358137
0.00984614 0.00342709 0.00679061
0.00717988 0.00509063 0.00491011
0.00601986 0.00120221 0.00992126
0.00760598 0.00218688 0.00780747
0.00603963 7.78635e-05 0.00824096
0.0028904 0.00204017 0.00799673
0.00616745 0.0026174 0.00991899
0.010005 0.00658444 0.00682106
0.00922649 0.00630949 0.00506854
0.00324948 0.00222772 0.00510487
0 0.00143586 0.00417514
0.00228979 0.00349619 0.00400774
0.00985243 0.00333331 0.0030414
0.0111647 0.00237408 0.00492607
0 0.00270918 0.00154168
0.00599741 0.00151378 -7.16122e-05
0.00721872 0.00228974 0.00210923
0.00570513 0.00360525 0.00153305
0.00193524 2.43996e-05 0.00403556
0.00603666 7.8479e-05 0.00161374
0.00377313 0.00700235 -4.59769e-05
0.00277807 0.00808953 0.0019089
0.00587814 0.00632761 0.00157265
0.0115061 0.00814287 0.00785088
0.0114653 0.00497669 0.00787646
0.0120683 0.00624842 0.00579711
0.0143706 0.00901883 0.00401834
0.0108967 0.00778533 0.00482889
0.012314 0.0101494 0.00401613
0.0114762 0.00812943 0.00187774
0.00508572 0.00310496 0.00689571
0.00638288 0.00374836 0.008242
0.00560575 0.0016786 0.00589879
0.00718916 0.00776479 0.00758522
0.00285086 0.00804544 0.0079535
0.00405188 0.0100502 0.00707552
0.00562154 0.00847428 0.00588655
0 0.00695361 0.00262895
0.00236172 0.00627047 0.00405761
0 0.0040177 0.00850214
0.00332175 0.00502918 0.00761949
0.00205548 0.00420082 0.0099739
0.0103144 0.00725841 0.00986471
0.00879696 0.00609071 0.00830474
0.00294157 0.00798035 0.00470407
0.004369 0.00700139 0.00641278
0.00227614 0.00610832 0.00589688
0.0143649 0.00598487 0.00812831
0 0.00718191 0.00711644
0.00227373 0.00580398 -2.88521e-05
0 0.00577432 0.00158701
0.0143664 0.0073557 0.00693143
0.00411977 0.00340362 0.00994565
0.0143641 0.00162321 0.00400101
0.0115909 0.0021112 0.00184054
0.0120852 0.00367454 0.00385076
0.00536727 0.00172286 0.00406066
0.00216018 0.0100277 0.00578716
0.00404828 5.24738e-05 0.00707716
0.00879256 0.00429277 0.00826328
0.0143668 0.00744988 0.00402115
0.0123058 0.00015694 0.00401757
0.00481312 0.00293611 -5.78618e-05
0.00388303 0.00159109 0.00994898
0.00406376 5.29297e-05 0.00278077
0.00689842 0.00528752 0.00746628
0.00454335 0.0032076 0.00310944
0 0.00849157 0.00581511
0.00700422 0.00376632 0.00369878
0.00220912 0.00273781 -2.79471e-05
0.00832922 0.00842752 0.0098902
0.00859129 0.0101046 0.00839502
0.00604462 0.0100743 0.0082398
0.00576507 0.00857485 0.00992358
0.014368 0.00866099 0.00563345
0.00452035 0.00689448 0.00309261
0 0.00748929 0.00137438
0.00196838 0.007515 -2.51446e-05
0 0.00287343 0.00335182
0 0.00580816 0.00831736
0 0.00429792 0.00253898
0.00364352 0.00434522 -4.43807e-05
0.00205499 0.00584566 0.0099738
0.00743883 0.00656949 0.00630618
0.00517405 0.00657795 0.00816732
0.00998509 0.00275417 0.00986928
0.0115301 0.00210536 0.00788794
0.0100191 0.000128812 0.00295989
0.00865179 0.00177596 0.00350638
0.0143648 0.00305694 0.00317926
0 0.00140616 0.00256446
0.00915893 0.00834082 0.00630528
0.00836485 0.0015441 -9.88614e-05
0.00867803 0.00366317 0.0014985
0.00452681 0.0100559 0.00576679
0.0123046 0.0101495 0.00567807
0.00368034 0.0014541 -4.46975e-05
0.00858991 0.000111174 0.00139036
0.00902846 0.00839958 0.0035052
0.0122971 0.000156851 0.0056794
0.00891691 0.00178755 0.0062533
0.00201245 0.00258961 0.00997433
0.0102361 0.00730891 -0.000121565
0.00742604 0.00778322 0.002077
0.00854424 0.00620123 0.0014983
0 0.00686719 0.00578184
0.0143674 0.00159419 0.00239493
0.00254419 0.00364302 0.0063755
0.0143723 0.00865603 0.00245207
0.0120921 0.00633916 0.00398453
0.00859732 0.0101053 0.00138861
0.0100143 0.000128516 0.00680076
0.0143629 0.00162238 0.00563893
0.012068 0.00372561 0.00590929
0.00215964 2.72135e-05 0.00578796
0 0.0013659 0.00748679
0.00195998 2.47566e-05 0.00750452
0.0143655 0.00704238 0.00559963
0.00836362 0.00859565 -0.000100309
0 0.0075208 0.00859127
0.00195529 0.00751152 0.00997511
0.00607666 0.00828175 0.00355096
0.0123526 0.0101486 0.00735368
0.0143699 0.008799 0.00733927
0.00829096 0.00169318 0.00989138
0.0104297 0.00431904 0.00986313
0 0.0057735 0.00666667
0.00196092 0.0100251 0.0075036
0 0.00863025 0.00752641
0.0123472 0.000158976 0.00235876
0.0143686 0.00712988 0.00245786
0.0121635 0.00649251 0.00201715
0.0122308 0.0059751 0.00984058
0.0107607 0.0015119 0.00985964
0.0123449 0.00015854 0.00735557
0.0143641 0.00155279 0.00730125
0 0.00143551 0.00581971
0.00858364 0.000110523 0.00839607
0.00604947 7.83975e-05 0.00332455
0.011409 0.00485157 0.00189789
0.0143663 0.00447873 0.00236948
0.00606988 0.0100745 0.00658871
0.00406627 0.01005 0.00277934
0.00188041 2.39691e-05 0.00239428
0 0.00727418 0.00419576
0.0143642 0.00595076 0.00648236
0.0100269 0.0101221 0.00295793
0.0107901 0.00876755 0.00985835
0 0.00574334 0.00336387
0 0.0043297 0.00416652
0.00986908 0.00590672 0.00987057
0.0143622 0.00320505 0.00673222
0.0060643 7.84555e-05 0.00659039
0.0035523 0.0100439 0.00856548
0.0107653 0.00150531 -0.000126272
0.00829284 0.0067698 0.00989087
0.0143687 0.0076935 0.00840056
0.0123753 0.00770379 0.0098381
0.00994273 0.00314993 -0.000116921
0.00483073 0.00580585 -5.82582e-05
0.0108289 0.00876357 -0.000127955
0.0108108 0.0101313 0.00125699
0.00831398 0.00697143 -9.92771e-05
0.0100272 0.00649642 0.00291049
0.0108033 0.000140111 0.00125812
0.00413571 0.00505089 0.0099456
0.00621493 0.00591146 0.009918
0.00621357 0.0042447 0.00991819
0.0108056 0.0101299 0.00847642
0.00354898 4.57015e-05 0.00856675
0.014366 0.0059215 0.00319135
0 0.00302218 0.00691532
0.0143638 0.00419915 0.00831189
0.0122284 0.00417317 -0.000142422
0.0143691 0.00289323 0.00137718
0 0.00244495 0.00857025
0.00350576 0.00861404 0.00995387
0.0107976 0.000139289 0.00847784
0.0121983 0.0027782 0.00984091
0.0127208 0.00435358 0.00983352
0.00814842 0.0100995 0.00572992
0.00745079 0.00767667 0.0049385
0.00810989 0.0100989 0.004113
0.0100218 0.0101219 0.00679933
0.00433479 0.00697034 0.00994287
0.00598604 0.00440714 -7.14078e-05
0.00406705 5.25135e-05 0.00435365
0.0045228 5.86803e-05 0.00576895
0.0143707 0.00437694 0.000961742
0.00522493 0.00840343 0.00152306
0.014364 0.00450987 0.00399132
0.00958692 0.00589379 -0.000113881
0.012355 0.0101496 0.00235732
0 0.00848692 0.00262374
0.00193551 0.0100251 0.00403473
0 0.00885053 0.00419359
0.00602757 0.00892582 -7.29214e-05
0.00604157 0.0100742 0.00161241
0.00718253 0.00488343 0.00229065
0.0103817 0.00465328 -0.000122172
0.00810253 0.000104504 0.0041155
0.0081415 0.000105042 0.00573188
0.00188033 0.0100241 0.00239332
0.0123257 0.00260355 -0.000143865
0.0143626 0.0047019 0.00703448
0.0102289 0.0101246 0.00487191
0.00824708 0.00346827 0.00989157
0.00352636 4.61896e-05 0.0013125
0.0143648 0.0026297 0.00837969
0.00343448 0.0048352 0.00495623
0.00838556 0.00443734 -9.91504e-05
0.0119644 0.00595684 -0.000139434
0.00787245 0.0100962 0.00711955
0.0143623 0.00451019 0.00565284
0.00776628 0.010095 0.00267882
0.0102214 0.000131098 0.00487353
0.0040697 0.0100503 0.00435159
0 0.00452174 0.00721958
0.00649065 0.00730092 0.00991423
0.00786552 0.000101483 0.00712066
0.00517219 0.00514033 0.0035307
0.00610646 0.0100747 0.00493004
0.00610075 7.91936e-05 0.00493256
0.00526805 0.00528392 0.0061081
0 0.005744 0.00499998
0 0.00433013 0.00583333
0.00718681 0.00583574 -8.5654e-05
0.00716169 0.00642995 0.00346412
0.0077592 0.000100258 0.00268072
0.0143643 0.00592083 0.00482151
0.00529746 0.00647577 0.00477669
0.00824892 0.00510322 0.00989148
0.0143705 0.00595158 0.00142177
0 0.00666667 0
0.0123602 0.00767233 -0.000144147
0.00478612 6.28412e-05 -5.74119e-05
0 0.01 0.00666667
0.00718296 0.0100869 0.00990552
0 0.00288419 0.00499914
0.0143732 0.00766334 0.00120933
0.0143768 0.00684177 -0.000162532
0 0.005 0.01
0.00718386 0.00297712 -8.52257e-05
0 0.005 0
0.0143704 0.000191478 0.00316175
0.0143771 0.010164 0.00648146
0.00602953 0.00735059 -7.25528e-05
0.014363 0.00306788 0.00482142
0.00718465 9.41746e-05 -8.56487e-05
0 0 0.00666667
0.00545194 0.00368644 0.0051575
0.00717692 9.24598e-05 0.00990666
0.014368 0.000190921 0.00648361
0 0 0.005
0.0126337 0.0101517 0.00107117
0.0143779 0.00894885 0.00105566
0.0143685 0.000190892 0.00482213
0.0143756 0.00517989 -0.000161382
0.00174782 0.00124254 -2.21155e-05
0 0.00122008 0.00122008
0 0.00333333 0.01
0 0.00666667 0.01
0.0126336 0.00893267 -0.00014728
0.0143791 0.0101636 0.00315929
0.00605466 0.0100741 0.00332233
0.0143725 0.00684119 0.00980438
0 0.00333333 0
0 0.00122008 0.00877992
0.00174588 2.20737e-05 0.00875828
0.00174568 0.00124209 0.00997772
0.0126275 0.0101503 0.0086151
0.00174659 0.00880202 0.00997762
0 0.00877992 0.00877992
0.0143728 0.00894747 0.00858891
0.00959212 0.0101166 -0.000115295
0.0143719 0.00140942 0.00105567
0.00174706 0.0100221 0.00875762
0.0126263 0.00893049 0.00983392
0.014371 0.0051784 0.00980497
0 0 0.00333333
0.00958397 0.000125057 -0.000113372
0.0126252 0.00016437 0.00107153
0.00173548 2.22971e-05 0.00118981
0 0.00877992 0.00122008
0.00174707 0.00880267 -2.23829e-05
0.0017352 0.0100221 0.00118892
0.0143669 0.00140789 0.00858963
0.0126205 0.00138291 0.00983497
0.00957518 0.000123456 0.00987544
0.0126278 0.00138476 -0.00014686
0.0126196 0.000163159 0.00861664
0.0143755 0.00351723 -0.000161105
0.00478426 0.0100581 0.00993683
0.00352806 0.0100436 0.00131139
0.00958327 0.0101152 0.00987443
0.0143697 0.00351515 0.00980479
0 0.01 0.005
0.00376618 0.00853488 -4.61714e-05
0.0143773 0.0101637 0.00482172
0 0.01 0.00333333
0 0.00166667 0
0.0143741 0.000191352 0.0015006
0 0.00166667 0.01
0 0.00833333 0
0.0143811 0.00850465 -0.000163141
0.0143696 0.000190541 0.00814551
0.0143831 0.0101655 0.00150045
0.0143785 0.0101642 0.00814386
0.00238839 0.0100292 0.00996906
0 0.01 0.00833333
0.0119944 0.010144 -0.000141293
0.0119859 0.00015713 -0.000140483
0.0119782 0.000155245 0.0098442
0.0119863 0.0101421 0.00984297
0 0 0.00833333
0.0143759 0.00850157 0.00980534
0.00238934 3.15056e-05 -2.96676e-05
0 0 0.00166667
0.0047893 0.0100591 -5.85178e-05
0.0143706 0.00185396 0.00980604
0.0143768 0.00185607 -0.000161938
0.00238601 3.0566e-05 0.00996966
0.0023895 0.0100299 -3.02354e-05
0 0.01 0.00166667
0.0143815 0.0101659 0.00980676
0 0 0.01
0.0143881 0.0101665 -0.000164414
0.0143731 0.000189368 0.00980863
0 0.01 0.01
0.0143798 0.000191079 -0.000163522
0 0.01 0
0 0 0
0.00719056 0.0100879 -8.72951e-05
0.00478008 6.16089e-05 0.00993755
0 0.00833333 0.01

CELLS 343 686
1 0
1 1
1 2
1 3
1 4
1 5
1 6
1 7
1 8
1 9
1 10
1 11
1 12
1 13
1 14
1 15
1 16
1 17
1 18
1 19
1 20
1 21
1 22
1 23
1 24
1 25
1 26
1 27
1 28
1 29
1 30
1 31
1 32
1 33
1 34
1 35
1 36
1 37
1 38
1 39
1 40
1 41
1 42
1 43
1 44
1 45
1 46
1 47
1 48
1 49
1 50
1 51
1 52
1 53
1 54
1 55
1 56
1 57
1 58
1 59
1 60
1 61
1 62
1 63
1 64
1 65
1 66
1 67
1 68
1 69
1 70
1 71
1 72
1 73
1 74
1 75
1 76
1 77
1 78
1 79
1 80
1 81
1 82
1 83
1 84
1 85
1 86
1 87
1 88
1 89
1 90
1 91
1 92
1 93
1 94
1 95
1 96
1 97
1 98
1 99
1 100
1 101
1 102
1 103
1 104
1 105
1 106
1 107
1 108
1 109
1 110
1 111
1 112
1 113
1 114
1 115
1 116
1 117
1 118
1 119
1 120
1 121
1 122
1 123
1 124
1 125
1 126
1 127
1 128
1 129
1 130
1 131
1 132
1 133
1 134
1 135
1 136
1 137
1 138
1 139
1 140
1 141
1 142
1 143
1 144
1 145
1 146
1 147
1 148
1 149
1 150
1 151
1 152
1 153
1 154
1 155
1 156
1 157
1 158
1 159
1 160
1 161
1 162
1 163
1 164
1 165
1 166
1 167
1 168
1 169
1 170
1 171
1 172
1 173
1 174
1 175
1 176
1 177
1 178
1 179
1 180
1 181
1 182
1 183
1 184
1 185
1 186
1 187
1 188
1 189
1 190
1 191
1 192
1 193
1 194
1 195
1 196
1 197
1 198
1 199
1 200
1 201
1 202
1 203
1 204
1 205
1 206
1 207
1 208
1 209
1 210
1 211
1 212
1 213
1 214
1 215
1 216
1 217
1 218
1 219
1 220
1 221
1 222
1 223
1 224
1 225
1 226
1 227
1 228
1 229
1 230
1 231
1 232
1 233
1 234
1 235
1 236
1 237
1 238
1 239
1 240
1 241
1 242
1 243
1 244
1 245
1 246
1 247
1 248
1 249
1 250
1 251
1 252
1 253
1 254
1 255
1 256
1 257
1 258
1 259
1 260
1 261
1 262
1 263
1 264
1 265
1 266
1 267
1 268
1 269
1 270
1 271
1 272
1 273
1 274
1 275
1 276
1 277
1 278
1 279
1 280
1 281
1 282
1 283
1 284
1 285
1 286
1 287
1 288
1 289
1 290
1 291
1 292
1 293
1 294
1 295
1 296
1 297
1 298
1 299
1 300
1 301
1 302
1 303
1 304
1 305
1 306
1 307
1 308
1 309
1 310
1 311
1 312
1 313
1 314
1 315
1 316
1 317
1 318
1 319
1 320
1 321
1 322
1 323
1 324
1 325
1 326
1 327
1 328
1 329
1 330
1 331
1 332
1 333
1 334
1 335
1 336
1 337
1 338
1 339
1 340
1 341
1 342

CELL_TYPES 343
1
1
1
1
1
1
1
1
1
1
1
1
1
1
1
1
1
1
1
1
1
1
1
1
1
1
1
1
1
1
1
1
1
1
1
1
1
1
1
1
1
1
1
1
1
1
1
1
1
1
1
1
1
1
1
1
1
1
1
1
1
1
1
1
1
1
1
1
1
1
1
1
1
1
1
1
1
1
1
1
1
1
1
1
1
1
1
1
1
1
1
1
1
1
1
1
1
1
1
1
1
1
1
1
1
1
1
1
1
1
1
1
1
1
1
1
1
1
1
1
1
1
1
1
1
1
1
1
1
1
1
1
1
1
1
1
1
1
1
1
1
1
1
1
1
1
1
1
1
1
1
1
1
1
1
1
1
1
1
1
1
1
1
1
1
1
1
1
1
1
1
1
1
1
1
1
1
1
1
1
1
1
1
1
1
1
1
1
1
1
1
1
1
1
1
1
1
1
1
1
1
1
1
1
1
1
1
1
1
1
1
1
1
1
1
1
1
1
1
1
1
1
1
1
1
1
1
1
1
1
1
1
1
1
1
1
1
1
1
1
1
1
1
1
1
1
1
1
1
1
1
1
1
1
1
1
1
1
1
1
1
1
1
1
1
1
1
1
1
1
1
1
1
1
1
1
1
1
1
1
1
1
1
1
1
1
1
1
1
1
1
1
1
1
1
1
1
1
1
1
1
1
1
1
1
1
1
1
1
1
1
1
1
1
1
1
1
1
1
1
1
1
1
1
1
1
1
1
1
1
1
1
1
1
1
1
1
1
1
1
1
1
1

POINT_DATA 343
FIELD FieldData 8

NodeID_(#) 1 343 int
0
1
2
3
4
5
6
7
8
9
10
11
12
13
14
15
16
17
18
19
20
21
22
23
24
25
26
27
28
29
30
31
32
33
34
35
36
37
38
39
40
41
42
43
44
45
46
47
48
49
50
51
52
53
54
55
56
57
58
59
60
61
62
63
64
65
66
67
68
69
70
71
72
73
74
75
76
77
78
79
80
81
82
83
84
85
86
87
88
89
90
91
92
93
94
95
96
97
98
99
100
101
102
103
104
105
106
107
108
109
110
111
112
113
114
115
116
117
118
119
120
121
122
123
124
125
126
127
128
129
130
131
132
133
134
135
136
137
138
139
140
141
142
143
144
145
146
147
148
149
150
151
152
153
154
155
156
157
158
159
160
161
162
163
164
165
166
167
168
169
170
171
172
173
174
175
176
177
178
179
180
181
182
183
184
185
186
187
188
189
190
191
192
193
194
195
196
197
198
199
200
201
202
203
204
205
206
207
208
209
210
211
212
213
214
215
216
217
218
219
220
221
222
223
224
225
226
227
228
229
230
231
232
233
234
235
236
237
238
239
240
241
242
243
244
245
246
247
248
249
250
251
252
253
254
255
256
257
258
259
260
261
262
263
264
265
266
267
268
269
270
271
272
273
274
275
276
277
278
279
280
281
282
283
284
285
286
287
288
289
290
291
292
293
294
295
296
297
298
299
300
301
302
303
304
305
306
307
308
309
310
311
312
313
314
315
316
317
318
319
320
321
322
323
324
325
326
327
328
329
330
331
332
333
334
335
336
337
338
339
340
341
342

Component_(#) 1 343 int
0
0
0
0
0
0
0
0
0
0
0
0
0
0
0
0
0
0
0
0
0
0
0
0
0
0
0
0
0
0
0
0
0
0
0
0
0
0
0
0
0
0
0
0
0
0
0
0
0
0
0
0
0
0
0
0
0
0
0
0
0
0
0
0
0
0
0
0
0
0
0
0
0
0
0
0
0
0
0
0
0
0
0
0
0
0
0
0
0
0
0
0
0
0
0
0
0
0
0
0
0
0
0
0
0
0
0
0
0
0
0
0
0
0
0
0
0
0
0
0
0
0
0
0
0
0
0
0
0
0
0
0
0
0
0
0
0
0
0
0
0
0
0
0
0
0
0
0
0
0
0
0
0
0
0
0
0
0
0
0
0
0
0
0
0
0
0
0
0
0
0
0
0
0
0
0
0
0
0
0
0
0
0
0
0
0
0
0
0
0
0
0
0
0
0
0
0
0
0
0
0
0
0
0
0
0
0
0
0
0
0
0
0
0
0
0
0
0
0
0
0
0
0
0
0
0
0
0
0
0
0
0
0
0
0
0
0
0
0
0
0
0
0
0
0
0
0
0
0
0
0
0
0
0
0
0
0
0
0
0
0
0
0
0
0
0
0
0
0
0
0
0
0
0
0
0
0
0
0
0
0
0
0
0
0
0
0
0
0
0
0
0
0
0
0
0
0
0
0
0
0
0
0
0
0
0
0
0
0
0
0
0
0
0
0
0
0
0
0
0
0
0
0
0
0
0
0
0
0
0
0
0
0
0
0
0
0
0
0
0
0
0
0

NodalMass_(kg) 1 343 double
3.15563e-06
1.41304e-05
2.20912e-06
1.71484e-05
8.42e-06
9.09306e-06
1.01179e-05
7.52198e-06
6.81096e-06
5.58223e-06
3.10888e-06
1.07575e-05
4.87011e-06
1.64955e-05
3.0246e-06
8.05984e-06
6.703e-06
1.0877e-05
4.18978e-06
8.16106e-06
6.14143e-06
1.17902e-05
2.23114e-06
4.25176e-06
1.09915e-05
7.41467e-06
4.21871e-06
3.92484e-06
3.08766e-06
1.31268e-05
7.72627e-06
1.65404e-05
1.19037e-05
7.97564e-06
3.81683e-06
1.11001e-05
3.81317e-06
1.39137e-05
6.37414e-06
8.00975e-06
7.6712e-06
1.21135e-05
1.6399e-05
2.78633e-06
8.93599e-06
2.58087e-06
7.57362e-06
4.23241e-06
1.31286e-05
3.80168e-06
2.7746e-06
7.16776e-06
1.21307e-05
5.11765e-06
8.19728e-06
4.58094e-06
2.79503e-06
3.26126e-06
4.12443e-06
2.11915e-06
3.35177e-06
3.61669e-06
1.56838e-05
7.33679e-06
8.24695e-06
5.00369e-06
2.82625e-06
7.20276e-06
3.26815e-06
4.18751e-06
2.02785e-06
2.42152e-06
3.11835e-06
5.97459e-06
5.87101e-06
4.09374e-06
5.45463e-06
2.28825e-06
4.49759e-06
4.38192e-06
4.50892e-06
4.39234e-06
4.27273e-06
5.32031e-06
1.53201e-06
2.38869e-06
2.02885e-06
4.38798e-06
3.17972e-06
3.14298e-06
4.61567e-06
5.87645e-06
8.18088e-06
2.48341e-06
1.53815e-05
3.49683e-06
7.35227e-06
2.01314e-06
2.0408e-06
7.98183e-06
4.41293e-06
7.1389e-06
1.20123e-06
5.03343e-06
1.61257e-06
4.12601e-06
8.73748e-06
4.37849e-06
7.97173e-06
2.13557e-06
3.38137e-06
9.48623e-06
7.40262e-06
1.80226e-06
2.10222e-06
7.98889e-06
1.87983e-06
7.44814e-06
4.19782e-06
2.37156e-06
4.31705e-06
6.06441e-06
4.30905e-06
2.16843e-06
1.8986e-06
1.81294e-06
3.89762e-06
2.44299e-06
1.65628e-06
8.01374e-06
1.64513e-06
2.3931e-06
3.01363e-06
2.99431e-06
1.36541e-06
1.87293e-06
2.09622e-06
1.94762e-06
1.87618e-06
6.37913e-06
4.58628e-06
2.02767e-06
1.61999e-06
2.41284e-06
3.8865e-06
4.44973e-06
2.29839e-06
1.17349e-05
3.11811e-06
1.354e-06
3.45063e-06
1.81846e-06
2.9382e-06
1.37381e-06
2.41464e-06
2.10451e-06
2.63927e-06
2.14166e-06
1.7943e-06
3.19976e-06
1.36989e-06
2.43489e-06
2.08158e-06
1.3601e-06
2.17203e-06
1.89924e-06
3.16996e-06
2.6119e-06
2.37677e-06
1.60225e-06
1.90684e-06
5.49206e-06
1.87878e-06
3.14313e-06
2.97301e-06
1.18454e-06
1.89263e-06
2.04166e-06
2.73572e-06
2.42405e-06
3.23083e-06
3.19752e-06
3.2142e-06
1.94492e-06
1.61196e-06
1.86876e-06
3.22435e-06
2.1114e-06
2.96917e-06
6.15288e-06
2.3097e-06
2.39729e-06
2.38029e-06
2.64508e-06
1.66557e-06
1.82377e-06
2.06583e-06
5.73271e-06
2.08467e-06
2.18324e-06
2.43522e-06
3.1188e-06
3.17316e-06
2.05447e-06
1.9592e-06
3.05718e-06
6.44327e-06
2.08796e-06
2.72615e-06
2.15709e-06
1.86812e-06
2.0028e-06
2.10999e-06
2.88994e-06
2.3222e-06
2.3979e-06
1.97629e-06
6.4127e-06
2.16225e-06
3.29198e-06
2.10223e-06
2.66566e-06
1.94415e-06
2.91865e-06
2.58116e-06
2.11703e-06
2.09534e-06
1.91719e-06
7.06046e-06
2.25203e-06
2.06378e-06
6.28159e-06
2.12147e-06
2.90924e-06
2.12921e-06
6.4487e-06
1.41701e-06
2.0682e-06
6.58062e-06
2.52584e-06
2.39732e-06
7.42191e-07
2.22368e-06
7.06751e-07
7.00657e-07
8.93749e-07
2.53536e-06
2.26535e-06
1.33607e-06
7.84725e-07
2.32303e-06
6.06694e-07
6.68276e-07
6.84307e-07
2.51242e-06
2.31629e-06
7.8367e-07
6.80839e-07
6.22692e-06
6.7471e-07
6.65305e-07
7.01158e-07
1.8232e-06
1.90695e-06
6.86722e-07
7.04792e-07
1.86445e-06
2.28572e-06
6.8045e-07
7.16005e-07
1.82373e-06
6.01079e-07
2.02791e-06
7.4579e-07
5.74423e-07
1.80052e-06
1.454e-06
2.2702e-06
1.80636e-06
2.15356e-06
1.79089e-06
1.79456e-06
6.8231e-07
2.24737e-06
1.45239e-06
1.79556e-06
6.97875e-07
6.24265e-07
6.62717e-07
1.44627e-06
1.40138e-06
2.15258e-06
1.82851e-06
1.3994e-06
1.43932e-06
2.19226e-06
6.97732e-07
1.77726e-06
1.79162e-06
6.54258e-07
7.3397e-07
2.34895e-06
7.10392e-07
6.56982e-07
6.26314e-07
2.18926e-06
6.12493e-07
6.03901e-07
5.92831e-07
5.12031e-07
5.11667e-07
4.9467e-07
4.97016e-07
4.96269e-07
5.33079e-07
4.94191e-07
4.97855e-07
4.86862e-07
4.90626e-07
4.94649e-07
4.94954e-07
4.91922e-07
4.89615e-07
4.96354e-07
4.95189e-07
4.82188e-07
1.10854e-06
5.3299e-07
5.44763e-07
5.36655e-07
5.15417e-07
5.01772e-07
5.53774e-07
5.53774e-07
5.53774e-07
5.53774e-07
5.53774e-07
5.53774e-07
5.50785e-07
5.50785e-07
7.45291e-07
7.11668e-07
4.9897e-07

NodalForce_(N) 3 343 double
-6.39971e-08 -2.69895e-09 -4.82988e-09
-3.57197e-07 -2.34466e-08 -1.34436e-07
0.000308254 2.60977e-05 0.000572665
-3.98737e-07 4.58673e-10 -1.15619e-07
2.55141e-08 2.09924e-08 -6.96317e-07
3.69348e-07 -3.91883e-09 -8.32717e-07
-1.92218e-08 -5.75804e-09 -2.03716e-06
-3.23119e-07 -2.45349e-08 -9.70165e-07
4.45437e-07 3.38468e-08 -1.14779e-06
9.68417e-09 -1.78358e-08 -4.34135e-07
3.37983e-07 2.70678e-08 -2.56347e-07
8.90834e-07 8.16735e-08 -1.18302e-06
3.57361e-07 5.81807e-08 -3.69005e-07
3.45917e-07 1.54029e-08 -1.56283e-07
3.3324e-07 1.43401e-08 -2.62932e-07
5.32949e-07 -1.60841e-08 -1.42099e-06
3.48342e-08 -2.47867e-08 -9.42397e-07
-1.47706e-08 -8.4855e-09 -1.49843e-07
0.000809147 0.0006297 0.00031681
-6.29804e-08 -9.19326e-09 -4.33602e-08
-3.87615e-07 2.06282e-08 -9.73964e-07
4.13578e-08 1.22861e-07 -2.45537e-06
0.00175335 -0.000374915 0.000363109
-4.47826e-07 1.69873e-08 -2.92837e-07
-7.7554e-07 5.03595e-08 -1.01515e-06
-5.10316e-07 -2.87207e-09 -4.59741e-07
-2.04221e-08 -1.16758e-09 -2.11252e-08
-2.53435e-07 1.3346e-08 -2.61479e-07
-2.19583e-07 -1.38059e-08 -7.95151e-08
-2.79615e-07 -4.03225e-08 -1.12458e-07
-5.32112e-07 -5.32683e-08 -5.03041e-07
1.73132e-06 5.70743e-08 -3.95483e-06
1.30227e-06 3.04961e-08 -2.7902e-06
2.33582e-07 -3.3474e-09 -1.9741e-06
-1.8551e-07 1.82647e-08 -1.26388e-06
-7.64286e-08 -5.30997e-09 -2.21443e-06
-1.67944e-07 2.47245e-08 -9.71868e-07
-1.6364e-06 -4.18268e-08 -3.12398e-06
1.84351e-07 -5.32613e-09 -2.62404e-07
5.99598e-07 -2.68158e-09 -6.72049e-07
1.44669e-07 2.88247e-08 -3.2702e-07
8.38278e-07 2.43197e-09 -1.22394e-06
4.16736e-07 1.16001e-08 -1.9033e-07
7.27119e-08 3.07718e-10 -7.31271e-08
1.53537e-07 -9.12794e-09 -4.31243e-07
0.00104653 -4.37856e-06 -0.00034058
-4.48489e-08 -3.52755e-09 -4.74144e-08
0.000367238 0.000575494 -0.000485776
2.97673e-07 -2.45682e-08 -2.01355e-07
9.67671e-08 -2.4533e-09 -1.97612e-08
4.4775e-07 1.03914e-08 -5.83718e-07
7.43447e-07 -3.70018e-09 -1.09254e-06
-1.41661e-09 -3.70798e-08 -1.25182e-07
8.93251e-08 -1.6134e-08 -1.41564e-07
5.73976e-08 -9.01531e-09 -5.6236e-08
5.14591e-07 3.35466e-08 -1.57604e-06
0.000815328 -0.000268414 2.27075e-05
-1.0662e-07 -4.97004e-09 -2.03367e-08
0.00192764 -0.000597296 0.000676468
1.38981e-07 1.1084e-08 -7.23275e-07
2.66992e-07 1.12719e-09 -1.34793e-07
-1.23022e-07 7.36558e-08 -1.18427e-06
-1.73884e-06 1.67834e-07 -3.47164e-06
-2.95162e-07 3.98984e-08 -1.7688e-06
-9.28934e-08 1.90396e-08 -3.05433e-07
3.46381e-08 4.01934e-09 -3.05706e-08
6.81158e-08 1.61368e-08 -6.40849e-08
7.47552e-07 1.36186e-08 -1.08629e-06
-1.51528e-07 7.36925e-09 -1.07697e-06
-1.10046e-07 8.29238e-08 -1.0398e-06
-1.84648e-07 -3.76574e-09 -8.95102e-08
1.82967e-07 1.08283e-08 -8.6743e-08
-6.17434e-08 7.29759e-09 -7.07781e-08
3.8012e-07 -1.56679e-08 -5.40974e-07
-1.31406e-07 -6.72709e-09 -1.55205e-07
0.00134281 -0.00030878 -0.000510405
-1.58526e-07 -7.97808e-09 -4.09101e-07
-7.18701e-08 2.73637e-10 -1.21559e-08
6.5374e-07 2.26776e-08 -6.75277e-07
4.44987e-07 2.47857e-08 -6.69287e-07
3.23143e-07 4.7535e-09 -3.58821e-07
4.66283e-07 1.55455e-08 -3.49553e-07
6.26382e-08 2.23995e-08 -1.43534e-06
-1.17225e-07 -2.72578e-08 -1.43819e-07
0.0012057 0.000354813 0.000222716
-6.02783e-08 -5.45996e-09 -6.79221e-09
0.00121103 -0.000143002 -0.000279219
0.00179491 -0.000244767 -0.00050103
0.0010474 0.000792716 -0.000557952
-2.17739e-07 -5.01545e-09 -7.57605e-08
1.3989e-07 -2.97982e-09 -2.64508e-08
2.23376e-07 -2.04359e-08 -5.52648e-07
5.02497e-07 -1.71247e-08 -4.61949e-07
4.02304e-07 2.98691e-08 -4.84985e-07
1.74703e-06 2.37814e-07 -3.58557e-06
-2.12285e-07 4.73677e-08 -5.73972e-07
-3.00943e-07 5.286e-08 -8.83699e-07
-1.3832e-07 2.64159e-08 -6.58871e-07
0.00179908 0.000814527 -4.03196e-05
3.55444e-07 6.26872e-09 -1.15524e-06
-6.26047e-07 3.4219e-08 -5.72854e-07
-7.25566e-07 1.10616e-08 -9.65902e-07
1.41118e-08 2.51484e-09 -3.80267e-08
1.01827e-07 4.79398e-08 -1.2956e-06
-1.10014e-07 1.57927e-09 -4.29045e-08
-4.03925e-07 4.20132e-08 -5.50188e-07
-4.14088e-07 -1.84197e-08 -1.18184e-06
1.61862e-07 9.10181e-08 -1.09777e-06
3.84585e-07 7.39594e-08 -1.06215e-06
4.91175e-08 -8.38793e-10 -1.05035e-08
-5.76062e-07 -2.19679e-08 -6.53729e-07
-7.41258e-07 -4.87751e-08 -9.37095e-07
-7.79286e-07 -5.36406e-08 -9.88871e-07
0.000656631 0.000392401 -0.000458291
-1.99904e-07 4.11413e-08 -6.85109e-07
6.3494e-08 -4.21781e-09 -6.59661e-08
-2.02501e-07 4.59354e-09 -6.25893e-07
-2.96145e-07 -1.20665e-08 -1.80023e-06
-4.69618e-07 7.79208e-09 -5.89699e-07
1.72974e-07 4.3468e-08 -4.04745e-07
1.25214e-07 9.43741e-08 -1.42603e-06
2.34696e-07 3.57222e-08 -1.49483e-06
1.7608e-08 3.97032e-09 -2.21195e-08
0.00145299 0.000167756 0.00040998
2.1867e-08 5.27956e-09 -3.25644e-09
2.79935e-08 5.6927e-09 -6.07141e-07
-5.97114e-07 -2.19354e-08 -5.37912e-07
0.00167565 0.000471599 -0.000786115
4.98717e-08 4.41847e-09 -1.27924e-08
-2.3101e-07 -2.97974e-08 -4.16872e-07
1.36968e-07 1.74353e-08 -4.41291e-07
1.8998e-07 1.45807e-08 -8.24112e-07
4.50338e-07 3.15333e-08 -4.31667e-07
4.96891e-07 1.72328e-08 -6.31356e-07
0.00119146 -0.000159844 0.000426688
2.74315e-08 -1.77785e-09 -6.50083e-09
0.001447 -0.000328892 0.000418911
-1.73038e-07 3.79075e-08 -4.83769e-07
-1.9749e-07 -2.37002e-09 -6.1907e-07
-7.29118e-07 -2.8389e-08 -1.56952e-06
8.12817e-07 2.67331e-08 -1.24746e-06
3.46384e-07 3.51451e-08 -4.46666e-07
1.60427e-07 3.87835e-08 -4.17542e-07
2.20907e-07 6.02812e-08 -8.08793e-07
0.00106996 0.000555119 -0.000772202
4.97503e-07 7.41706e-08 -6.29871e-07
-6.3212e-08 1.47706e-08 -1.2387e-07
-1.31806e-06 5.23262e-09 -2.54719e-06
-3.20053e-07 2.4797e-08 -1.0169e-06
4.75307e-08 2.36762e-09 -8.59463e-08
-8.18701e-08 5.14625e-09 -8.17968e-08
-2.21598e-08 -2.76181e-09 -1.95491e-09
0.00229764 0.000719439 -1.41103e-05
7.09873e-08 7.82626e-09 -4.6224e-07
-1.76232e-07 1.00075e-08 -4.15077e-07
3.44063e-07 1.80733e-08 -4.83236e-07
0.00149571 0.000111265 -0.000684535
0.000974567 0.000830483 0.00179012
2.87879e-07 4.63664e-09 -3.51584e-07
2.15114e-07 4.3773e-08 -1.07265e-06
5.47349e-08 1.45459e-08 -7.86445e-08
1.10655e-07 -1.40056e-09 -6.53328e-08
-3.4635e-07 2.45063e-08 -4.26935e-07
1.94172e-07 -1.91758e-10 -2.05139e-07
2.61171e-07 1.4802e-08 -7.52363e-07
3.34416e-07 1.47049e-08 -5.31272e-07
-5.1189e-07 1.03532e-08 -5.69581e-07
-2.40453e-07 -1.42756e-08 -1.20612e-07
-4.26416e-07 -9.80893e-09 -5.12533e-07
-2.16467e-07 4.15063e-09 -3.379e-07
-2.84143e-07 -1.36128e-08 -2.60655e-07
-3.92007e-07 -2.91487e-08 -9.23483e-07
-2.24344e-07 2.96219e-08 -3.76298e-07
2.46355e-07 9.33704e-09 -1.36674e-07
3.46184e-07 8.62349e-10 -2.78574e-07
1.33519e-07 2.77893e-09 -1.10699e-07
2.2562e-07 1.60637e-08 -4.23508e-07
8.56834e-08 1.54508e-08 -4.42816e-08
-2.04432e-07 1.00307e-08 -8.94601e-07
0.00182813 -9.31844e-05 0.000292754
3.99275e-07 3.66083e-08 -1.1043e-06
-6.02092e-07 1.04717e-08 -8.17925e-07
-4.40114e-07 4.23647e-08 -1.04423e-06
0.00140027 -0.000191425 -0.000309517
1.11259e-07 4.40957e-09 -5.63235e-08
2.46307e-07 4.31599e-08 -3.96043e-07
5.88229e-07 4.94214e-08 -8.62664e-07
3.82421e-07 2.0416e-08 -6.05994e-07
7.24385e-08 1.43165e-08 -3.3084e-07
1.46485e-08 -1.97964e-08 -5.35345e-07
-5.92643e-08 8.55637e-09 -2.46858e-07
1.45423e-07 1.56664e-08 -4.24617e-07
1.95491e-07 -5.71277e-09 -1.18984e-07
-2.97801e-07 -7.37589e-09 -1.96402e-07
-5.37413e-09 7.99252e-09 -3.24658e-08
2.31368e-08 1.1387e-08 -4.67846e-08
-3.20287e-07 1.41662e-08 -6.76551e-07
-3.5194e-07 -2.33607e-08 -3.10495e-07
-8.47885e-08 1.6009e-08 -6.86031e-07
-3.55677e-07 -1.5828e-08 -3.74903e-07
-2.59247e-07 1.28375e-08 -6.27856e-07
0.00153797 -0.000328298 -0.000112043
-2.95435e-09 4.77025e-09 -1.5705e-08
0.00133992 -0.000634834 4.24351e-05
-2.20954e-07 -7.54984e-09 -1.54757e-07
-2.24683e-07 7.22669e-09 -2.16573e-07
-4.35562e-07 -2.96671e-08 -5.7034e-07
-3.52236e-07 -2.54078e-09 -4.05826e-07
-4.93097e-08 3.10648e-08 -2.73667e-07
7.09782e-08 2.79224e-08 -2.26151e-07
-1.91034e-08 3.24716e-09 -3.64619e-09
-3.72226e-07 1.84696e-08 -5.15309e-07
1.58483e-07 1.84161e-08 -7.12928e-07
-1.99409e-08 1.64144e-08 -5.17701e-07
3.35579e-07 1.53939e-08 -3.34886e-07
-9.16514e-08 -2.61313e-09 -4.29821e-08
2.55344e-07 3.90275e-08 -6.72273e-07
-7.88756e-09 -1.44745e-08 -1.05102e-07
-3.13315e-07 -3.78037e-09 -2.9731e-07
-6.21352e-07 -2.26522e-08 -8.26201e-07
1.25751e-07 9.28765e-09 -2.41457e-07
6.19738e-08 2.21469e-08 -8.8899e-07
-1.27313e-07 4.07383e-09 -2.01907e-07
1.68747e-08 4.52876e-08 -5.0411e-07
-1.66684e-08 3.43757e-09 -5.47285e-08
0.00165567 0.000289426 0.000741007
2.50966e-07 7.53918e-10 -2.08772e-07
1.32618e-07 2.58336e-08 -2.06693e-07
-1.48938e-07 -2.63892e-08 -2.42961e-07
-3.29839e-09 6.3657e-09 -1.27085e-07
1.01932e-08 1.8565e-08 -1.00199e-07
1.10721e-07 -2.15335e-08 -2.56966e-07
0.00201982 -0.00141018 8.6145e-05
0.00187576 0.000707378 -0.00116966
-2.7994e-07 -2.0376e-08 -2.2689e-07
-2.39334e-07 -3.1024e-08 -5.07048e-07
-7.79379e-08 1.27217e-08 -1.42172e-07
-2.39979e-08 8.75746e-09 -6.86203e-07
-1.85122e-08 -2.95989e-08 -2.40164e-07
3.59612e-07 4.56471e-09 -3.74225e-07
-3.39346e-07 3.49245e-09 -7.86891e-07
0.000842274 0.000726869 2.68426e-05
-4.32262e-07 -9.98503e-09 -5.91983e-07
-5.9766e-08 7.62948e-09 -3.68369e-08
0.000893032 -1.8376e-05 -0.000976773
1.16303e-07 8.90776e-09 -1.11219e-07
0.00206957 -0.00113823 0.00014688
-3.46871e-07 -6.25185e-09 -7.49384e-07
-2.69025e-07 -1.86679e-09 -4.51864e-07
0.000774816 -0.00106907 0.000130341
-2.95584e-07 4.81859e-10 -2.3578e-07
0.00076137 0.00120588 -5.10303e-05
-4.06589e-08 1.82646e-08 -2.17797e-07
3.01101e-08 9.2444e-09 -2.32618e-07
-2.81178e-07 -1.68907e-08 -1.96406e-07
-1.17443e-08 3.01703e-08 -7.65911e-07
-9.64568e-08 1.0607e-08 -8.2013e-08
0.000667158 -0.000165151 0.000796948
2.43894e-08 -1.14275e-08 -2.44039e-07
8.68578e-08 6.80982e-09 -7.88094e-08
4.31865e-08 1.89097e-08 -2.1969e-07
0.000418224 -0.000443119 0.00103195
-2.81744e-07 5.38422e-09 -4.9881e-07
-3.06524e-07 1.57239e-09 -6.36482e-07
1.63221e-09 1.87462e-08 -2.25396e-07
-1.38807e-07 4.17224e-10 -2.36783e-07
-4.33406e-08 2.18606e-09 -6.97801e-09
0.000984169 0.000542747 2.77098e-05
0.000659039 -0.000988436 0.000193352
0.000696574 -0.000982399 0.000121076
-3.58321e-07 -7.00559e-09 -5.04927e-07
-4.99305e-08 4.90628e-09 -2.0022e-07
-7.11221e-08 5.50078e-09 -1.09778e-07
1.2933e-07 5.93565e-09 -2.6338e-07
0.000781275 0.000471801 0.000152255
0.000413157 0.00034985 -0.000523227
2.17241e-08 3.99139e-09 -8.77562e-09
4.33273e-08 6.39353e-10 -8.39684e-09
2.32899e-07 2.30257e-08 -5.21864e-07
5.55426e-08 3.57903e-09 -1.45455e-08
0.000621821 -0.000197679 -0.000303544
2.2565e-07 1.78882e-08 -6.27952e-07
-1.1558e-07 -2.38882e-10 -1.2146e-07
-3.26535e-07 4.72229e-08 -7.3108e-07
2.74613e-08 -1.2671e-10 -1.25057e-08