# vtk DataFile Version 4.2
vtk output
ASCII
DATASET UNSTRUCTURED_GRID

POINTS 343 double
0.00161223 0.00421626 -2.06409e-05
0.00311801 0.00502401 0.00213532
0 0.00419538 0.00112517
0.00277549 0.00199113 0.00190663
0.0074485 0.00251104 0.00494004
0.007445 0.00393197 0.00630462
0.0109776 0.00492859 0.00486469
0.0089638 0.0049744 0.00358218
0.00984786 0.00342658 0.00679168
0.0071816 0.00509038 0.00491061
0.00602028 0.001202 0.00992173
0.00760698 0.00218656 0.00780815
0.00604022 7.76575e-05 0.00824142
0.00289083 0.00204015 0.00799678
0.00616799 0.00261719 0.00991948
0.0100071 0.00658392 0.00682217
0.00922876 0.00630905 0.00506943
0.00325016 0.00222769 0.00510495
0 0.00143586 0.00417514
0.00229035 0.00349619 0.00400775
0.00985496 0.00333281 0.00304238
0.011167 0.00237342 0.00492738
0 0.00270918 0.00154168
0.00599928 0.00151359 -7.12846e-05
0.00722066 0.00228945 0.00210978
0.00570686 0.0036051 0.0015334
0.00193563 2.44241e-05 0.00403558
0.00603819 7.83216e-05 0.00161413
0.00377462 0.00700232 -4.58822e-05
0.00277903 0.00808954 0.00190894
0.00588012 0.00632749 0.00157301
0.0115084 0.00814219 0.00785236
0.0114672 0.00497602 0.00787793
0.012071 0.00624768 0.00579865
0.0143745 0.00901787 0.00402036
0.0108996 0.00778471 0.00483013
0.0123177 0.0101487 0.00401768
0.0114799 0.00812877 0.00187907
0.00508661 0.00310484 0.00689596
0.00638379 0.00374816 0.0082425
0.00560672 0.00167844 0.00589907
0.00719066 0.00776452 0.00758583
0.00285147 0.00804542 0.00795355
0.00405295 0.0100501 0.00707565
0.00562304 0.00847413 0.00588684
0 0.00695361 0.00262895
0.00236238 0.00627046 0.00405763
0 0.0040177 0.00850214
0.00332239 0.00502916 0.00761957
0.00205578 0.00420082 0.0099739
0.010316 0.00725785 0.00986596
0.00879845 0.00609031 0.00830568
0.0029424 0.00798035 0.00470412
0.00437004 0.00700134 0.00641293
0.00227666 0.00610832 0.00589691
0.0143675 0.00598386 0.00813045
0 0.00718191 0.00711644
0.00227454 0.00580397 -2.88515e-05
0 0.00577432 0.00158701
0.0143695 0.00735472 0.00693354
0.00412013 0.00340355 0.00994585
0.0143672 0.00162221 0.00400302
0.011594 0.00211051 0.00184187
0.012088 0.0036738 0.00385225
0.00536841 0.00172272 0.0040609
0.0021608 0.0100277 0.00578717
0.00404881 5.24073e-05 0.00707729
0.00879387 0.00429237 0.00826421
0.0143706 0.00744891 0.00402316
0.0123083 0.000156199 0.00401911
0.00481476 0.00293602 -5.76686e-05
0.00388327 0.00159102 0.00994917
0.00406463 5.28737e-05 0.0027809
0.00689965 0.0052873 0.00746684
0.00454451 0.00320753 0.0031096
0 0.00849157 0.00581511
0.00700598 0.00376609 0.00369926
0.00220982 0.00273781 -2.79491e-05
0.00833055 0.00842713 0.00989106
0.00859314 0.0101042 0.00839595
0.00604595 0.0100742 0.00824027
0.00576598 0.00857465 0.00992399
0.0143715 0.00866002 0.00563552
0.00452172 0.00689442 0.00309278
0 0.00748929 0.00137438
0.00196911 0.00751503 -2.51606e-05
0 0.00287343 0.00335182
0 0.00580816 0.00831736
0 0.00429792 0.00253898
0.00364484 0.00434518 -4.42894e-05
0.0020553 0.00584566 0.00997381
0.00744049 0.00656922 0.00630677
0.00517497 0.00657786 0.00816764
0.00998613 0.00275362 0.00987046
0.0115317 0.00210465 0.00788941
0.0100213 0.000128314 0.00296091
0.00865378 0.00177555 0.00350714
0.0143682 0.00305595 0.00318124
0 0.00140616 0.00256446
0.00916114 0.00834038 0.00630619
0.0083674 0.00154372 -9.81752e-05
0.0086806 0.00366277 0.00149928
0.00452812 0.0100558 0.00576698
0.0123079 0.0101488 0.00567966
0.00368151 0.00145404 -4.45908e-05
0.00859211 0.00011081 0.00139114
0.00903124 0.00839916 0.00350603
0.0122992 0.000156106 0.00568098
0.00891839 0.00178712 0.00625416
0.0020127 0.00258962 0.00997433
0.0102398 0.00730839 -0.000120514
0.00742859 0.00778295 0.00207758
0.00854706 0.00620088 0.00149906
0 0.00686719 0.00578184
0.0143708 0.0015932 0.00239689
0.0025447 0.00364302 0.00637554
0.0143766 0.00865506 0.00245405
0.0120953 0.00633841 0.00398602
0.00860057 0.010105 0.00138941
0.0100156 0.000127989 0.00680185
0.0143655 0.00162138 0.00564099
0.0120704 0.00372486 0.00591084
0.00216002 2.72253e-05 0.00578798
0 0.0013659 0.00748679
0.00196027 2.47533e-05 0.00750451
0.0143689 0.00704141 0.0056017
0.00836694 0.00859531 -9.95877e-05
0 0.0075208 0.00859127
0.00195561 0.0075115 0.00997513
0.00607859 0.00828158 0.00355127
0.0123555 0.0101479 0.00735534
0.0143731 0.00879803 0.0073414
0.00829161 0.00169279 0.00989223
0.0104309 0.00431846 0.0098644
0 0.0057735 0.00666667
0.00196141 0.0100251 0.0075036
0 0.00863025 0.00752641
0.01235 0.000158236 0.00236026
0.0143727 0.00712891 0.00245984
0.0121672 0.00649177 0.00201862
0.0122326 0.00597434 0.00984223
0.0107617 0.00151127 0.00986098
0.0123466 0.000157772 0.00735719
0.0143664 0.00155179 0.00730335
0 0.00143551 0.00581971
0.00858446 0.00011012 0.00839694
0.00605074 7.8215e-05 0.00332489
0.0114123 0.00485091 0.00189919
0.0143701 0.00447773 0.00237143
0.0060715 0.0100744 0.00658909
0.00406774 0.01005 0.00277947
0.00188086 2.39974e-05 0.00239428
0 0.00727418 0.00419576
0.0143671 0.00594976 0.00648445
0.0100302 0.0101216 0.00295896
0.0107919 0.00876693 0.00985971
0 0.00574334 0.00336387
0 0.0043297 0.00416652
0.00987042 0.00590621 0.00987174
0.0143648 0.00320406 0.00673432
0.00606511 7.82537e-05 0.00659075
0.00355308 0.0100439 0.00856562
0.0107685 0.00150471 -0.000125142
0.00829402 0.00676945 0.00989174
0.0143715 0.00769251 0.00840269
0.0123773 0.007703 0.00983979
0.00994587 0.00314942 -0.000115937
0.00483256 0.00580578 -5.80505e-05
0.010833 0.008763 -0.000126769
0.0108147 0.0101307 0.00125821
0.0083171 0.00697109 -9.85631e-05
0.0100302 0.00649591 0.00291152
0.010806 0.000139535 0.0012593
0.00413618 0.00505081 0.00994583
0.00621568 0.00591129 0.00991852
0.00621422 0.0042445 0.00991872
0.0108079 0.0101293 0.00847779
0.00354931 4.56253e-05 0.00856686
0.0143698 0.0059205 0.00319333
0 0.00302218 0.00691532
0.0143662 0.00419815 0.00831402
0.0122323 0.00417241 -0.000140997
0.0143729 0.00289224 0.00137909
0 0.00244495 0.00857025
0.0035063 0.00861397 0.00995404
0.0107988 0.000138662 0.00847917
0.0121997 0.00277742 0.00984255
0.0127225 0.00435275 0.00983528
0.00815067 0.0100992 0.00573062
0.0074528 0.00767639 0.00493905
0.00811246 0.0100986 0.00411366
0.0100243 0.0101215 0.00680044
0.00433538 0.0069703 0.00994313
0.00598816 0.00440698 -7.10396e-05
0.00406781 5.24348e-05 0.00435378
0.00452351 5.85889e-05 0.00576912
0.0143748 0.00437595 0.00096365
0.00522685 0.00840331 0.00152336
0.0143674 0.00450888 0.00399334
0.00959029 0.00589333 -0.000112959
0.012359 0.0101489 0.00235886
0 0.00848692 0.00262374
0.0019361 0.0100251 0.00403474
0 0.00885053 0.00419359
0.00603006 0.00892565 -7.25301e-05
0.00604393 0.010074 0.0016128
0.00718467 0.0048832 0.00229118
0.0103852 0.00465273 -0.000121105
0.00810413 0.000104159 0.00411615
0.00814278 0.00010469 0.00573256
0.00188098 0.0100241 0.00239331
0.0123294 0.00260279 -0.00014243
0.0143653 0.0047009 0.00703659
0.0102319 0.0101241 0.00487302
0.00824791 0.0034679 0.00989242
0.00352726 4.61683e-05 0.00131259
0.014367 0.00262868 0.00838182
0.00343532 0.00483517 0.00495633
0.0083884 0.00443698 -9.84144e-05
0.0119684 0.00595614 -0.000138046
0.00787439 0.0100959 0.00712026
0.0143653 0.0045092 0.00565491
0.00776904 0.0100947 0.00267944
0.0102233 0.000130572 0.00487463
0.00407103 0.0100502 0.00435171
0 0.00452174 0.00721958
0.00649157 0.00730072 0.00991478
0.0078665 0.000101149 0.00712133
0.0051736 0.00514023 0.00353091
0.00610835 0.0100745 0.00493039
0.00610181 7.89957e-05 0.00493289
0.00526921 0.00528381 0.00610835
0 0.005744 0.00499998
0 0.00433013 0.00583333
0.00718944 0.00583552 -8.51076e-05
0.00716378 0.00642971 0.00346461
0.00776097 9.99514e-05 0.00268134
0.0143676 0.00591983 0.00482356
0.00529886 0.00647567 0.00477691
0.00824992 0.00510287 0.00989235
0.0143746 0.0059506 0.0014237
0 0.00666667 0
0.0123645 0.00767158 -0.00014267
0.00478754 6.27073e-05 -5.71768e-05
0 0.01 0.00666667
0.00718421 0.0100867 0.00990619
0 0.00288419 0.00499914
0.0143776 0.00766239 0.00121126
0.0143814 0.0068408 -0.000160633
0 0.005 0.01
0.00718621 0.00297687 -8.47039e-05
0 0.005 0
0.0143735 0.000190521 0.00316373
0.0143806 0.0101631 0.00648356
0.00603189 0.00735044 -7.21689e-05
0.014366 0.00306689 0.00482347
0.00718676 9.3903e-05 -8.51255e-05
0 0 0.00666667
0.00545314 0.00368631 0.00515774
0.00717735 9.21723e-05 0.00990732
0.0143704 0.000189956 0.00648568
0 0 0.005
0.0126381 0.010151 0.00107275
0.0143825 0.00894791 0.0010576
0.0143712 0.000189935 0.00482417
0.01438 0.00517892 -0.000159496
0.00174834 0.00124253 -2.21225e-05
0 0.00122008 0.00122008
0 0.00333333 0.01
0 0.00666667 0.01
0.0126381 0.00893192 -0.000145736
0.0143834 0.0101627 0.00316129
0.00605677 0.0100739 0.00332265
0.0143748 0.0068402 0.00980653
0 0.00333333 0
0 0.00122008 0.00877992
0.00174609 2.20631e-05 0.0087583
0.00174589 0.00124209 0.00997772
0.0126301 0.0101495 0.00861687
0.0017469 0.00880201 0.00997763
0 0.00877992 0.00877992
0.0143757 0.00894649 0.00859106
0.00959596 0.0101162 -0.000114326
0.0143756 0.00140844 0.00105758
0.00174745 0.0100221 0.00875767
0.0126285 0.00892969 0.00983567
0.0143731 0.00517738 0.00980711
0 0 0.00333333
0.0095867 0.000124587 -0.000112446
0.0126284 0.000163598 0.00107307
0.00173593 2.23133e-05 0.00118985
0 0.00877992 0.00122008
0.00174774 0.0088027 -2.23878e-05
0.00173585 0.0100221 0.00118894
0.0143689 0.00140688 0.00859175
0.0126218 0.00138208 0.0098367
0.00957584 0.000122976 0.00987655
0.0126314 0.00138397 -0.000145367
0.0126211 0.00016235 0.00861836
0.0143797 0.00351624 -0.000159232
0.00478509 0.010058 0.00993715
0.00352948 0.0100436 0.00131149
0.00958501 0.0101148 0.00987557
0.0143716 0.00351414 0.00980692
0 0.01 0.005
0.00376776 0.00853486 -4.60579e-05
0.0143812 0.0101628 0.00482377
0 0.01 0.00333333
0 0.00166667 0
0.0143776 0.000190397 0.00150253
0 0.00166667 0.01
0 0.00833333 0
0.0143859 0.00850371 -0.000161241
0.0143715 0.000189558 0.00814763
0.0143877 0.0101646 0.00150241
0.0143816 0.0101633 0.00814602
0.00238886 0.0100292 0.00996914
0 0.01 0.00833333
0.0119989 0.0101433 -0.000139854
0.0119892 0.000156431 -0.000139117
0.0119793 0.000154506 0.00984581
0.0119885 0.0101414 0.00984459
0 0 0.00833333
0.0143784 0.00850057 0.00980749
0.00239 3.14857e-05 -2.96212e-05
0 0 0.00166667
0.00479141 0.010059 -5.82851e-05
0.0143723 0.00185295 0.00980817
0.0143808 0.00185509 -0.000160074
0.00238621 3.0539e-05 0.00996972
0.00239051 0.0100299 -3.01912e-05
0 0.01 0.00166667
0.0143842 0.0101649 0.00980891
0 0 0.01
0.0143931 0.0101656 -0.000162493
0.0143747 0.000188385 0.00981077
0 0.01 0.01
0.0143837 0.000190117 -0.00016166
0 0.01 0
0 0 0
0.0071936 0.0100876 -8.6741e-05
0.0047803 6.14954e-05 0.00993785
0 0.00833333 0.01

CELLS 343 686
1 0
1 1
1 2
1 3
1 4
1 5
1 6
1 7
1 8
1 9
1 10
1 11
1 12
1 13
1 14
1 15
1 16
1 17
1 18
1 19
1 20
1 21
1 22
1 23
1 24
1 25
1 26
1 27
1 28
1 29
1 30
1 31
1 32
1 33
1 34
1 35
1 36
1 37
1 38
1 39
1 40
1 41
1 42
1 43
1 44
1 45
1 46
1 47
1 48
1 49
1 50
1 51
1 52
1 53
1 54
1 55
1 56
1 57
1 58
1 59
1 60
1 61
1 62
1 63
1 64
1 65
1 66
1 67
1 68
1 69
1 70
1 71
1 72
1 73
1 74
1 75
1 76
1 77
1 78
1 79
1 80
1 81
1 82
1 83
1 84
1 85
1 86
1 87
1 88
1 89
1 90
1 91
1 92
1 93
1 94
1 95
1 96
1 97
1 98
1 99
1 100
1 101
1 102
1 103
1 104
1 105
1 106
1 107
1 108
1 109
1 110
1 111
1 112
1 113
1 114
1 115
1 116
1 117
1 118
1 119
1 120
1 121
1 122
1 123
1 124
1 125
1 126
1 127
1 128
1 129
1 130
1 131
1 132
1 133
1 134
1 135
1 136
1 137
1 138
1 139
1 140
1 141
1 142
1 143
1 144
1 145
1 146
1 147
1 148
1 149
1 150
1 151
1 152
1 153
1 154
1 155
1 156
1 157
1 158
1 159
1 160
1 161
1 162
1 163
1 164
1 165
1 166
1 167
1 168
1 169
1 170
1 171
1 172
1 173
1 174
1 175
1 176
1 177
1 178
1 179
1 180
1 181
1 182
1 183
1 184
1 185
1 186
1 187
1 188
1 189
1 190
1 191
1 192
1 193
1 194
1 195
1 196
1 197
1 198
1 199
1 200
1 201
1 202
1 203
1 204
1 205
1 206
1 207
1 208
1 209
1 210
1 211
1 212
1 213
1 214
1 215
1 216
1 217
1 218
1 219
1 220
1 221
1 222
1 223
1 224
1 225
1 226
1 227
1 228
1 229
1 230
1 231
1 232
1 233
1 234
1 235
1 236
1 237
1 238
1 239
1 240
1 241
1 242
1 243
1 244
1 245
1 246
1 247
1 248
1 249
1 250
1 251
1 252
1 253
1 254
1 255
1 256
1 257
1 258
1 259
1 260
1 261
1 262
1 263
1 264
1 265
1 266
1 267
1 268
1 269
1 270
1 271
1 272
1 273
1 274
1 275
1 276
1 277
1 278
1 279
1 280
1 281
1 282
1 283
1 284
1 285
1 286
1 287
1 288
1 289
1 290
1 291
1 292
1 293
1 294
1 295
1 296
1 297
1 298
1 299
1 300
1 301
1 302
1 303
1 304
1 305
1 306
1 307
1 308
1 309
1 310
1 311
1 312
1 313
1 314
1 315
1 316
1 317
1 318
1 319
1 320
1 321
1 322
1 323
1 324
1 325
1 326
1 327
1 328
1 329
1 330
1 331
1 332
1 333
1 334
1 335
1 336
1 337
1 338
1 339
1 340
1 341
1 342

CELL_TYPES 343
1
1
1
1
1
1
1
1
1
1
1
1
1
1
1
1
1
1
1
1
1
1
1
1
1
1
1
1
1
1
1
1
1
1
1
1
1
1
1
1
1
1
1
1
1
1
1
1
1
1
1
1
1
1
1
1
1
1
1
1
1
1
1
1
1
1
1
1
1
1
1
1
1
1
1
1
1
1
1
1
1
1
1
1
1
1
1
1
1
1
1
1
1
1
1
1
1
1
1
1
1
1
1
1
1
1
1
1
1
1
1
1
1
1
1
1
1
1
1
1
1
1
1
1
1
1
1
1
1
1
1
1
1
1
1
1
1
1
1
1
1
1
1
1
1
1
1
1
1
1
1
1
1
1
1
1
1
1
1
1
1
1
1
1
1
1
1
1
1
1
1
1
1
1
1
1
1
1
1
1
1
1
1
1
1
1
1
1
1
1
1
1
1
1
1
1
1
1
1
1
1
1
1
1
1
1
1
1
1
1
1
1
1
1
1
1
1
1
1
1
1
1
1
1
1
1
1
1
1
1
1
1
1
1
1
1
1
1
1
1
1
1
1
1
1
1
1
1
1
1
1
1
1
1
1
1
1
1
1
1
1
1
1
1
1
1
1
1
1
1
1
1
1
1
1
1
1
1
1
1
1
1
1
1
1
1
1
1
1
1
1
1
1
1
1
1
1
1
1
1
1
1
1
1
1
1
1
1
1
1
1
1
1
1
1
1
1
1
1
1
1
1
1
1
1
1
1
1
1
1
1
1
1
1
1
1
1
1
1
1
1
1
1

POINT_DATA 343
FIELD FieldData 8

NodeID_(#) 1 343 int
0
1
2
3
4
5
6
7
8
9
10
11
12
13
14
15
16
17
18
19
20
21
22
23
24
25
26
27
28
29
30
31
32
33
34
35
36
37
38
39
40
41
42
43
44
45
46
47
48
49
50
51
52
53
54
55
56
57
58
59
60
61
62
63
64
65
66
67
68
69
70
71
72
73
74
75
76
77
78
79
80
81
82
83
84
85
86
87
88
89
90
91
92
93
94
95
96
97
98
99
100
101
102
103
104
105
106
107
108
109
110
111
112
113
114
115
116
117
118
119
120
121
122
123
124
125
126
127
128
129
130
131
132
133
134
135
136
137
138
139
140
141
142
143
144
145
146
147
148
149
150
151
152
153
154
155
156
157
158
159
160
161
162
163
164
165
166
167
168
169
170
171
172
173
174
175
176
177
178
179
180
181
182
183
184
185
186
187
188
189
190
191
192
193
194
195
196
197
198
199
200
201
202
203
204
205
206
207
208
209
210
211
212
213
214
215
216
217
218
219
220
221
222
223
224
225
226
227
228
229
230
231
232
233
234
235
236
237
238
239
240
241
242
243
244
245
246
247
248
249
250
251
252
253
254
255
256
257
258
259
260
261
262
263
264
265
266
267
268
269
270
271
272
273
274
275
276
277
278
279
280
281
282
283
284
285
286
287
288
289
290
291
292
293
294
295
296
297
298
299
300
301
302
303
304
305
306
307
308
309
310
311
312
313
314
315
316
317
318
319
320
321
322
323
324
325
326
327
328
329
330
331
332
333
334
335
336
337
338
339
340
341
342

Component_(#) 1 343 int
0
0
0
0
0
0
0
0
0
0
0
0
0
0
0
0
0
0
0
0
0
0
0
0
0
0
0
0
0
0
0
0
0
0
0
0
0
0
0
0
0
0
0
0
0
0
0
0
0
0
0
0
0
0
0
0
0
0
0
0
0
0
0
0
0
0
0
0
0
0
0
0
0
0
0
0
0
0
0
0
0
0
0
0
0
0
0
0
0
0
0
0
0
0
0
0
0
0
0
0
0
0
0
0
0
0
0
0
0
0
0
0
0
0
0
0
0
0
0
0
0
0
0
0
0
0
0
0
0
0
0
0
0
0
0
0
0
0
0
0
0
0
0
0
0
0
0
0
0
0
0
0
0
0
0
0
0
0
0
0
0
0
0
0
0
0
0
0
0
0
0
0
0
0
0
0
0
0
0
0
0
0
0
0
0
0
0
0
0
0
0
0
0
0
0
0
0
0
0
0
0
0
0
0
0
0
0
0
0
0
0
0
0
0
0
0
0
0
0
0
0
0
0
0
0
0
0
0
0
0
0
0
0
0
0
0
0
0
0
0
0
0
0
0
0
0
0
0
0
0
0
0
0
0
0
0
0
0
0
0
0
0
0
0
0
0
0
0
0
0
0
0
0
0
0
0
0
0
0
0
0
0
0
0
0
0
0
0
0
0
0
0
0
0
0
0
0
0
0
0
0
0
0
0
0
0
0
0
0
0
0
0
0
0
0
0
0
0
0
0
0
0
0
0
0
0
0
0
0
0
0
0
0
0
0
0
0
0
0
0
0
0
0

NodalMass_(kg) 1 343 double
3.15563e-06
1.41304e-05
2.20912e-06
1.71484e-05
8.42e-06
9.09306e-06
1.01179e-05
7.52198e-06
6.81096e-06
5.58223e-06
3.10888e-06
1.07575e-05
4.87011e-06
1.64955e-05
3.0246e-06
8.05984e-06
6.703e-06
1.0877e-05
4.18978e-06
8.16106e-06
6.14143e-06
1.17902e-05
2.23114e-06
4.25176e-06
1.09915e-05
7.41467e-06
4.21871e-06
3.92484e-06
3.08766e-06
1.31268e-05
7.72627e-06
1.65404e-05
1.19037e-05
7.97564e-06
3.81683e-06
1.11001e-05
3.81317e-06
1.39137e-05
6.37414e-06
8.00975e-06
7.6712e-06
1.21135e-05
1.6399e-05
2.78633e-06
8.93599e-06
2.58087e-06
7.57362e-06
4.23241e-06
1.31286e-05
3.80168e-06
2.7746e-06
7.16776e-06
1.21307e-05
5.11765e-06
8.19728e-06
4.58094e-06
2.79503e-06
3.26126e-06
4.12443e-06
2.11915e-06
3.35177e-06
3.61669e-06
1.56838e-05
7.33679e-06
8.24695e-06
5.00369e-06
2.82625e-06
7.20276e-06
3.26815e-06
4.18751e-06
2.02785e-06
2.42152e-06
3.11835e-06
5.97459e-06
5.87101e-06
4.09374e-06
5.45463e-06
2.28825e-06
4.49759e-06
4.38192e-06
4.50892e-06
4.39234e-06
4.27273e-06
5.32031e-06
1.53201e-06
2.38869e-06
2.02885e-06
4.38798e-06
3.17972e-06
3.14298e-06
4.61567e-06
5.87645e-06
8.18088e-06
2.48341e-06
1.53815e-05
3.49683e-06
7.35227e-06
2.01314e-06
2.0408e-06
7.98183e-06
4.41293e-06
7.1389e-06
1.20123e-06
5.03343e-06
1.61257e-06
4.12601e-06
8.73748e-06
4.37849e-06
7.97173e-06
2.13557e-06
3.38137e-06
9.48623e-06
7.40262e-06
1.80226e-06
2.10222e-06
7.98889e-06
1.87983e-06
7.44814e-06
4.19782e-06
2.37156e-06
4.31705e-06
6.06441e-06
4.30905e-06
2.16843e-06
1.8986e-06
1.81294e-06
3.89762e-06
2.44299e-06
1.65628e-06
8.01374e-06
1.64513e-06
2.3931e-06
3.01363e-06
2.99431e-06
1.36541e-06
1.87293e-06
2.09622e-06
1.94762e-06
1.87618e-06
6.37913e-06
4.58628e-06
2.02767e-06
1.61999e-06
2.41284e-06
3.8865e-06
4.44973e-06
2.29839e-06
1.17349e-05
3.11811e-06
1.354e-06
3.45063e-06
1.81846e-06
2.9382e-06
1.37381e-06
2.41464e-06
2.10451e-06
2.63927e-06
2.14166e-06
1.7943e-06
3.19976e-06
1.36989e-06
2.43489e-06
2.08158e-06
1.3601e-06
2.17203e-06
1.89924e-06
3.16996e-06
2.6119e-06
2.37677e-06
1.60225e-06
1.90684e-06
5.49206e-06
1.87878e-06
3.14313e-06
2.97301e-06
1.18454e-06
1.89263e-06
2.04166e-06
2.73572e-06
2.42405e-06
3.23083e-06
3.19752e-06
3.2142e-06
1.94492e-06
1.61196e-06
1.86876e-06
3.22435e-06
2.1114e-06
2.96917e-06
6.15288e-06
2.3097e-06
2.39729e-06
2.38029e-06
2.64508e-06
1.66557e-06
1.82377e-06
2.06583e-06
5.73271e-06
2.08467e-06
2.18324e-06
2.43522e-06
3.1188e-06
3.17316e-06
2.05447e-06
1.9592e-06
3.05718e-06
6.44327e-06
2.08796e-06
2.72615e-06
2.15709e-06
1.86812e-06
2.0028e-06
2.10999e-06
2.88994e-06
2.3222e-06
2.3979e-06
1.97629e-06
6.4127e-06
2.16225e-06
3.29198e-06
2.10223e-06
2.66566e-06
1.94415e-06
2.91865e-06
2.58116e-06
2.11703e-06
2.09534e-06
1.91719e-06
7.06046e-06
2.25203e-06
2.06378e-06
6.28159e-06
2.12147e-06
2.90924e-06
2.12921e-06
6.4487e-06
1.41701e-06
2.0682e-06
6.58062e-06
2.52584e-06
2.39732e-06
7.42191e-07
2.22368e-06
7.06751e-07
7.00657e-07
8.93749e-07
2.53536e-06
2.26535e-06
1.33607e-06
7.84725e-07
2.32303e-06
6.06694e-07
6.68276e-07
6.84307e-07
2.51242e-06
2.31629e-06
7.8367e-07
6.80839e-07
6.22692e-06
6.7471e-07
6.65305e-07
7.01158e-07
1.8232e-06
1.90695e-06
6.86722e-07
7.04792e-07
1.86445e-06
2.28572e-06
6.8045e-07
7.16005e-07
1.82373e-06
6.01079e-07
2.02791e-06
7.4579e-07
5.74423e-07
1.80052e-06
1.454e-06
2.2702e-06
1.80636e-06
2.15356e-06
1.79089e-06
1.79456e-06
6.8231e-07
2.24737e-06
1.45239e-06
1.79556e-06
6.97875e-07
6.24265e-07
6.62717e-07
1.44627e-06
1.40138e-06
2.15258e-06
1.82851e-06
1.3994e-06
1.43932e-06
2.19226e-06
6.97732e-07
1.77726e-06
1.79162e-06
6.54258e-07
7.3397e-07
2.34895e-06
7.10392e-07
6.56982e-07
6.26314e-07
2.18926e-06
6.12493e-07
6.03901e-07
5.92831e-07
5.12031e-07
5.11667e-07
4.9467e-07
4.97016e-07
4.96269e-07
5.33079e-07
4.94191e-07
4.97855e-07
4.86862e-07
4.90626e-07
4.94649e-07
4.94954e-07
4.91922e-07
4.89615e-07
4.96354e-07
4.95189e-07
4.82188e-07
1.10854e-06
5.3299e-07
5.44763e-07
5.36655e-07
5.15417e-07
5.01772e-07
5.53774e-07
5.53774e-07
5.53774e-07
5.53774e-07
5.53774e-07
5.53774e-07
5.50785e-07
5.50785e-07
7.45291e-07
7.11668e-07
4.9897e-07

NodalForce_(N) 3 343 double
-2.40945e-07 1.93288e-08 -1.20431e-08
-1.64847e-06 3.30447e-07 -5.47865e-07
0.000375007 4.68914e-05 0.000570468
-9.51178e-07 3.65559e-07 -4.89919e-07
7.9105e-07 1.60125e-06 -2.65712e-06
1.47608e-06 1.61918e-06 -3.11177e-06
-4.46805e-07 3.74922e-06 -7.39219e-06
-1.41128e-06 1.87029e-06 -3.5932e-06
1.85637e-06 2.18294e-06 -4.17615e-06
-1.80149e-07 8.83594e-07 -1.65328e-06
1.5562e-06 4.83943e-07 -8.77793e-07
4.22575e-06 2.31398e-06 -4.25887e-06
2.03789e-06 7.69472e-07 -1.29659e-06
1.99727e-06 3.83211e-07 -6.57078e-07
1.38073e-06 4.38061e-07 -9.03292e-07
7.90482e-07 2.49055e-06 -5.11821e-06
-6.28462e-07 1.76753e-06 -3.4644e-06
3.90227e-07 3.13622e-07 -5.92055e-07
0.000762106 0.000657464 0.000259795
-1.52102e-07 6.71685e-08 -1.53644e-07
-1.02499e-06 1.94274e-06 -3.55539e-06
1.39241e-06 4.82171e-06 -8.90818e-06
0.00173068 -0.000438385 0.000345036
-1.16031e-06 6.02133e-07 -9.69302e-07
-1.76227e-06 2.09657e-06 -3.75539e-06
-1.68585e-06 7.97535e-07 -1.66815e-06
1.20121e-07 6.15307e-09 -8.8211e-08
-3.24838e-07 5.08526e-07 -9.6104e-07
-1.00067e-06 9.68995e-08 -2.57222e-07
-1.98882e-06 1.12438e-07 -4.58816e-07
-2.54706e-06 6.64145e-07 -1.81604e-06
2.16342e-06 6.86566e-06 -1.40193e-05
4.00517e-06 4.84979e-06 -9.94623e-06
-1.25413e-07 3.5153e-06 -7.05858e-06
-1.66514e-06 2.24908e-06 -4.45933e-06
-2.57014e-06 4.10049e-06 -7.9893e-06
-1.89812e-06 1.73595e-06 -3.44704e-06
-8.79868e-06 5.53999e-06 -1.10567e-05
9.18293e-07 5.40408e-07 -9.86773e-07
2.34339e-06 1.05162e-06 -2.40496e-06
1.26265e-06 9.06412e-07 -1.28408e-06
1.0047e-06 2.10164e-06 -4.38733e-06
5.41634e-07 4.22963e-07 -6.49927e-07
-1.80877e-07 1.40265e-07 -2.55646e-07
-8.74984e-07 9.43892e-07 -1.6113e-06
0.00110442 5.51955e-05 -0.000349849
-3.88137e-07 1.36968e-07 -1.95993e-07
0.000281207 0.000608989 -0.000525802
8.5993e-07 3.33731e-07 -7.59051e-07
3.51245e-07 4.73461e-08 -5.66907e-08
1.09441e-06 9.50058e-07 -2.01466e-06
1.92464e-06 1.75141e-06 -3.87403e-06
-8.00756e-07 1.42186e-07 -4.85428e-07
-4.08615e-08 2.35444e-07 -5.21549e-07
2.7892e-08 1.04614e-07 -2.18684e-07
1.34938e-06 2.74694e-06 -5.55308e-06
0.000879736 -0.000263912 4.86935e-05
-4.75013e-07 4.41453e-08 -5.73982e-08
0.00194928 -0.000596976 0.000670269
1.1033e-07 1.25764e-06 -2.55257e-06
1.01858e-06 1.99832e-07 -4.5418e-07
1.60303e-07 2.2282e-06 -4.20501e-06
-4.01534e-06 6.768e-06 -1.23998e-05
-7.50046e-07 3.30681e-06 -6.35022e-06
3.96941e-07 8.93002e-07 -1.23368e-06
-2.53681e-07 1.29736e-08 -1.06356e-07
5.92767e-07 1.92858e-07 -2.5265e-07
2.63282e-06 1.80927e-06 -3.86541e-06
-1.10001e-06 1.91419e-06 -3.80814e-06
6.05673e-07 2.0078e-06 -3.74291e-06
-5.84483e-07 1.41187e-07 -2.93554e-07
8.19665e-07 1.58291e-07 -2.95257e-07
1.18774e-07 1.91357e-07 -2.69962e-07
1.12292e-06 8.44913e-07 -1.96661e-06
-3.37976e-07 3.6203e-07 -6.23206e-07
0.00144555 -0.000285822 -0.000516473
-4.42501e-07 8.44722e-07 -1.56685e-06
-2.24045e-07 2.11117e-08 -3.35836e-08
1.36232e-06 1.10977e-06 -2.29776e-06
2.48374e-07 1.08689e-06 -2.37433e-06
1.58094e-07 5.63157e-07 -1.27721e-06
9.66583e-07 5.89084e-07 -1.14384e-06
-8.54243e-07 2.53265e-06 -5.07241e-06
-8.47752e-07 2.52355e-07 -5.80984e-07
0.00123704 0.000318194 0.000257362
-3.29518e-07 -6.78766e-09 -1.4286e-08
0.00121413 -0.000189646 -0.000250488
0.00164143 -0.000270733 -0.000499739
0.00102524 0.000813363 -0.00055196
-8.12523e-07 1.20514e-07 -2.48087e-07
4.24754e-07 4.35321e-08 -7.39994e-08
1.44903e-07 9.92795e-07 -2.03299e-06
1.21811e-06 5.73025e-07 -1.62833e-06
1.61698e-06 8.64712e-07 -1.68807e-06
7.93669e-06 6.82304e-06 -1.2822e-05
2.53748e-08 1.17855e-06 -2.10026e-06
-1.2608e-07 1.93937e-06 -3.30294e-06
-3.12803e-07 1.21627e-06 -2.33128e-06
0.00180567 0.000836237 -1.73702e-05
-5.17207e-07 2.19468e-06 -4.18961e-06
-1.58633e-06 1.10653e-06 -1.95135e-06
-2.29543e-06 1.78074e-06 -3.4575e-06
-1.58025e-07 9.07916e-08 -1.48954e-07
-1.4025e-06 2.32626e-06 -4.61723e-06
-2.86443e-07 9.1643e-08 -1.40399e-07
-5.73182e-07 1.05515e-06 -1.9784e-06
-3.38986e-06 2.28183e-06 -4.33201e-06
1.57655e-06 2.10986e-06 -3.95323e-06
2.34382e-06 2.23653e-06 -3.91807e-06
2.28581e-07 1.10688e-08 -3.26192e-08
-2.58698e-06 1.06797e-06 -2.22863e-06
-4.27444e-06 1.63686e-06 -3.3788e-06
-3.48856e-06 1.60318e-06 -3.50139e-06
0.000572369 0.000387042 -0.00052062
-3.38631e-07 1.28763e-06 -2.41773e-06
3.29937e-07 1.25557e-07 -2.70355e-07
-1.15794e-06 1.10164e-06 -2.19321e-06
-1.92025e-06 3.29296e-06 -6.45194e-06
-2.9284e-06 1.02009e-06 -2.06472e-06
1.1166e-06 8.3888e-07 -1.46976e-06
1.11947e-06 2.67583e-06 -5.07892e-06
1.00693e-06 2.73917e-06 -5.36976e-06
2.78049e-07 4.07489e-08 -9.07921e-08
0.00142154 0.00013042 0.000441656
1.65088e-07 3.01575e-08 -1.46659e-08
-1.85401e-07 1.06506e-06 -2.14681e-06
-2.97239e-06 8.39509e-07 -1.82046e-06
0.00167204 0.000452414 -0.000822975
1.24324e-07 3.0146e-08 -3.60782e-08
-2.18065e-06 9.31497e-07 -1.59827e-06
-1.00181e-07 7.72457e-07 -1.56416e-06
3.47864e-08 1.41877e-06 -2.90025e-06
1.97261e-06 7.77705e-07 -1.49489e-06
1.73487e-06 1.05627e-06 -2.19733e-06
0.00130725 -0.000178713 0.000443848
-1.99923e-08 -1.46445e-09 -2.75401e-08
0.00143728 -0.000296401 0.000449954
-1.34169e-07 9.35993e-07 -1.72868e-06
-9.7183e-07 1.08517e-06 -2.17612e-06
-3.32992e-06 2.80847e-06 -5.56166e-06
2.35341e-06 2.12147e-06 -4.34111e-06
1.51637e-06 8.26366e-07 -1.5574e-06
9.32556e-07 8.06318e-07 -1.48909e-06
1.1572e-06 1.51522e-06 -2.87234e-06
0.00102707 0.0005676 -0.000796118
2.6642e-06 1.24119e-06 -2.23179e-06
1.37674e-07 3.29397e-07 -4.82418e-07
-4.92388e-06 4.71004e-06 -9.08505e-06
-1.10018e-06 1.86722e-06 -3.58081e-06
-1.47321e-07 1.76191e-07 -3.1315e-07
-9.01094e-07 1.78678e-07 -3.15056e-07
-1.01333e-08 -2.00591e-09 -1.54779e-08
0.00224811 0.000669148 1.49679e-05
1.18317e-07 8.19184e-07 -1.63675e-06
-1.39353e-06 7.8056e-07 -1.49041e-06
6.59799e-07 8.21234e-07 -1.66307e-06
0.00149615 5.43606e-05 -0.000680553
0.000982172 0.000839773 0.00182514
8.48046e-07 5.59486e-07 -1.21853e-06
9.65568e-07 1.94299e-06 -3.81278e-06
4.17948e-07 2.12802e-07 -2.95227e-07
6.17598e-08 9.52973e-08 -2.3036e-07
-8.74915e-07 8.02523e-07 -1.46187e-06
5.18409e-07 2.98294e-07 -7.01445e-07
4.78358e-07 1.29611e-06 -2.63853e-06
7.70433e-07 9.07578e-07 -1.84339e-06
-1.57435e-06 1.01177e-06 -1.95651e-06
-9.96642e-07 1.3993e-07 -4.02228e-07
-2.08969e-06 8.39315e-07 -1.75235e-06
-1.27887e-06 5.82932e-07 -1.18231e-06
-1.26237e-06 3.98323e-07 -8.80509e-07
-2.05281e-06 1.68867e-06 -3.35116e-06
-3.56679e-07 7.23385e-07 -1.33364e-06
8.07674e-07 1.91724e-07 -4.59134e-07
1.06447e-06 3.51653e-07 -9.43367e-07
4.81677e-07 1.54571e-07 -3.77151e-07
1.51914e-07 7.15099e-07 -1.49448e-06
5.20247e-07 1.40119e-07 -1.56709e-07
-9.42521e-07 1.62505e-06 -3.16288e-06
0.00184787 -7.57411e-05 0.000320704
1.41817e-06 1.95011e-06 -3.8952e-06
-2.02872e-06 1.45906e-06 -2.80515e-06
-1.20756e-06 1.94836e-06 -3.6571e-06
0.00139656 -0.000216426 -0.000282266
2.40223e-07 9.24386e-08 -1.80085e-07
1.27106e-06 7.74741e-07 -1.40268e-06
2.32473e-06 1.55454e-06 -3.01294e-06
1.31888e-06 1.05857e-06 -2.1148e-06
-6.07896e-07 6.7723e-07 -1.21961e-06
-9.62533e-07 1.09206e-06 -2.00684e-06
-8.81098e-07 5.18638e-07 -9.10962e-07
-2.74244e-07 7.85586e-07 -1.52714e-06
5.27219e-07 9.67136e-08 -3.89317e-07
-1.07587e-06 2.85781e-07 -6.65239e-07
1.58577e-07 1.22948e-07 -1.448e-07
3.18428e-07 1.55303e-07 -1.95547e-07
-1.08253e-06 1.23152e-06 -2.35428e-06
-2.12213e-06 4.93904e-07 -1.11934e-06
-3.02492e-07 1.24685e-06 -2.43394e-06
-1.43205e-06 6.06077e-07 -1.27713e-06
-1.73133e-06 1.10732e-06 -2.21563e-06
0.00160773 -0.00038951 -0.000141885
-2.14176e-07 2.19377e-08 -5.69445e-08
0.00135964 -0.000625227 8.90542e-05
-1.15719e-06 2.33878e-07 -5.21458e-07
-1.54128e-06 4.04922e-07 -7.7016e-07
-1.72533e-06 9.6511e-07 -2.08656e-06
-1.26193e-06 7.05288e-07 -1.39265e-06
3.45294e-07 6.62539e-07 -1.04966e-06
6.61226e-07 5.35615e-07 -8.47455e-07
-1.94114e-07 1.47238e-08 -1.32823e-08
-1.06983e-06 9.41003e-07 -1.766e-06
5.09529e-07 1.26506e-06 -2.52578e-06
-1.01856e-06 9.71828e-07 -1.86903e-06
1.28243e-06 5.5593e-07 -1.15785e-06
-1.03769e-07 9.08302e-08 -1.67747e-07
1.08522e-06 1.23054e-06 -2.37509e-06
-1.21265e-07 1.96696e-07 -4.2499e-07
-1.10591e-06 4.86735e-07 -1.01935e-06
-2.44862e-06 1.38264e-06 -2.82026e-06
-1.50742e-07 4.46842e-07 -8.72103e-07
1.97616e-07 1.5975e-06 -3.15636e-06
-1.00642e-06 3.98912e-07 -7.29076e-07
6.96416e-07 1.03057e-06 -1.85222e-06
-4.95047e-07 1.33117e-07 -2.1576e-07
0.00162656 0.000271669 0.000777068
6.34276e-07 2.82577e-07 -7.00358e-07
8.3222e-07 4.54481e-07 -7.49374e-07
-7.7424e-07 5.14583e-07 -9.73012e-07
-5.56868e-07 3.00747e-07 -4.84133e-07
3.7462e-07 3.14818e-07 -4.09322e-07
1.97169e-07 4.73001e-07 -9.8399e-07
0.00206059 -0.00142595 9.90214e-05
0.00180625 0.000691416 -0.0011721
-1.13817e-06 2.90956e-07 -7.68229e-07
-1.51629e-06 9.91744e-07 -1.93e-06
-1.13731e-08 3.12406e-07 -5.27444e-07
-2.68514e-07 1.23055e-06 -2.43222e-06
-5.6149e-07 4.81913e-07 -9.38749e-07
1.17502e-06 5.51027e-07 -1.28776e-06
-1.37086e-06 1.41223e-06 -2.74627e-06
0.000885518 0.000720639 5.82998e-05
-1.92027e-06 9.94655e-07 -2.0208e-06
-1.24868e-07 8.04564e-08 -1.21464e-07
0.000908115 -3.99491e-05 -0.000970926
1.86634e-07 1.74576e-07 -3.69127e-07
0.00212544 -0.00111606 0.000142902
-1.60925e-06 1.30086e-06 -2.60594e-06
-1.10395e-06 7.76197e-07 -1.54266e-06
0.000758993 -0.00108195 0.000148391
-9.00286e-07 3.94557e-07 -7.9885e-07
0.000772067 0.00121013 -4.4554e-05
1.89097e-08 4.08762e-07 -7.71992e-07
-1.24252e-07 4.04375e-07 -8.21684e-07
-1.31368e-06 2.50024e-07 -6.59119e-07
1.40861e-07 1.39675e-06 -2.72186e-06
-2.03408e-07 1.60138e-07 -2.73502e-07
0.0006577 -0.000159981 0.000798304
2.13513e-07 5.56523e-07 -9.61648e-07
4.28645e-07 1.40331e-07 -2.66177e-07
3.05404e-07 4.10361e-07 -7.82496e-07
0.000402983 -0.000460159 0.0010376
-1.59195e-06 8.4741e-07 -1.73382e-06
-1.54863e-06 1.10231e-06 -2.20945e-06
1.67311e-07 4.19944e-07 -8.02889e-07
-5.02744e-07 4.11257e-07 -8.08439e-07
-1.11447e-07 3.33393e-08 -1.66433e-08
0.000967258 0.0005719 -6.08058e-06
0.000630851 -0.000975575 0.000218013
0.000663809 -0.000989126 0.000152175
-1.72099e-06 8.35896e-07 -1.7259e-06
-3.70682e-07 3.47641e-07 -7.04255e-07
-7.49342e-07 2.70226e-07 -4.1373e-07
3.38808e-07 4.46655e-07 -9.12894e-07
0.000804209 0.00044973 0.000173095
0.000389043 0.000334567 -0.000517713
1.38743e-07 2.70609e-08 -2.67524e-08
2.22387e-07 2.49254e-08 -3.0269e-08
1.77893e-07 8.90424e-07 -1.83403e-06
1.12166e-07 3.66987e-08 -4.00728e-08
0.000620825 -0.000170673 -0.00031768
2.9598e-07 1.0833e-06 -2.19731e-06
-6.20677e-07 1.94359e-07 -4.14062e-07
-7.17889e-07 1.37712e-06 -2.54953e-06
1.69215e-08 8.12487e-09 -5.16865e-08
5.89657e-07 9.0555e-07 -1.81206e-06
3.94248e-07 4.26271e-07 -8.50296e-07