# vtk DataFile Version 4.2
vtk output
ASCII
DATASET UNSTRUCTURED_GRID

POINTS 343 double
0.00160238 0.00421576 -2.01552e-05
0.00309881 0.005023 0.00213647
0 0.00419538 0.00112517
0.00275835 0.00199022 0.0019076
0.00739744 0.00250743 0.00494423
0.00739333 0.00392892 0.00630999
0.0108977 0.00492404 0.00487265
0.00890166 0.0049709 0.0035867
0.00977596 0.00342194 0.00680049
0.00713301 0.00508775 0.00491456
0.00597591 0.00119907 0.00992727
0.00755248 0.00218279 0.0078148
0.00599683 7.43261e-05 0.00824629
0.00287192 0.00203914 0.0079979
0.0061228 0.00261439 0.00992522
0.00993394 0.00658064 0.00683137
0.00916355 0.00630596 0.0050756
0.00322939 0.00222652 0.0051063
0 0.00143586 0.00417514
0.00227606 0.00349543 0.00400858
0.00978537 0.00332801 0.00304716
0.0110851 0.00236736 0.00493562
0 0.00270918 0.00154168
0.00595934 0.00151062 -6.97034e-05
0.00717205 0.00228594 0.00211251
0.00566958 0.00360283 0.00153533
0.0019234 2.37818e-05 0.00403633
0.00599757 7.50373e-05 0.00161626
0.0037508 0.00700108 -4.49655e-05
0.00276195 0.00808864 0.00190993
0.00584181 0.00632558 0.001575
0.011421 0.00813926 0.00786495
0.0113804 0.00497137 0.00789046
0.0119801 0.00624352 0.0058091
0.0142615 0.00901481 0.00403125
0.0108201 0.0077818 0.00483791
0.012225 0.0101476 0.00402621
0.0113968 0.00812602 0.00188432
0.00505238 0.00310291 0.0068988
0.0063387 0.0037456 0.00824783
0.00556904 0.00167579 0.00590206
0.00713988 0.00776227 0.00759179
0.00283304 0.00804435 0.00795473
0.00402591 0.0100492 0.00707761
0.00558554 0.0084725 0.00588988
0 0.00695361 0.00262895
0.00234764 0.00626968 0.00405847
0 0.0040177 0.00850214
0.00330078 0.00502811 0.007621
0.0020421 0.00420019 0.0099747
0.0102367 0.00725483 0.00987844
0.00873403 0.00608728 0.00831457
0.00292392 0.00797934 0.00470524
0.0043415 0.00699981 0.00641487
0.00226218 0.00610758 0.00589778
0.0142518 0.00597847 0.00814731
0 0.00718191 0.00711644
0.00226062 0.00580323 -2.81793e-05
0 0.00577432 0.00158701
0.0142547 0.00735056 0.00694893
0.00409053 0.00340203 0.00994903
0.0142543 0.0016134 0.00401377
0.01151 0.00210392 0.00184695
0.0119985 0.00366804 0.00386015
0.00533308 0.00172021 0.00406335
0.0021472 0.0100271 0.00578798
0.00402138 5.0431e-05 0.00707918
0.0087295 0.00428871 0.00827295
0.014258 0.00744531 0.00403409
0.0122158 0.00014757 0.0040275
0.00478361 0.00293415 -5.64854e-05
0.00385523 0.00158937 0.00995211
0.004038 5.08293e-05 0.00278258
0.00685135 0.00528475 0.00747241
0.00451536 0.00320585 0.00311158
0 0.00849157 0.00581511
0.00695899 0.0037632 0.00370256
0.00219626 0.00273714 -2.73052e-05
0.00826773 0.00842475 0.00990057
0.00852933 0.0101027 0.0084049
0.00600298 0.0100728 0.00824527
0.00572393 0.0085728 0.00992948
0.0142575 0.00865669 0.00564894
0.00449289 0.00689289 0.00309471
0 0.00748929 0.00137438
0.0019571 0.00751439 -2.45738e-05
0 0.00287343 0.00335182
0 0.00580816 0.00831736
0 0.00429792 0.00253898
0.00362191 0.00434396 -4.34109e-05
0.00204158 0.00584497 0.00997464
0.0073889 0.00656674 0.00631204
0.00513921 0.00657607 0.0081715
0.00990957 0.00274837 0.00988202
0.0114439 0.00209809 0.00790188
0.00994949 0.000121905 0.00296573
0.0085935 0.00177086 0.00351132
0.014256 0.0030482 0.00319078
0 0.00140616 0.00256446
0.00909526 0.00833788 0.00631363
0.0083098 0.00153909 -9.58404e-05
0.00862089 0.00365879 0.0015024
0.00449815 0.0100548 0.00576928
0.0122141 0.0101476 0.00569038
0.00365786 0.00145244 -4.36761e-05
0.00853211 0.000105396 0.00139426
0.00896804 0.00839681 0.00351072
0.0122057 0.000147507 0.00569174
0.0088544 0.0017823 0.00626123
0.00199931 0.00258902 0.00997514
0.0101676 0.00730559 -0.000117207
0.00737882 0.00778079 0.00208038
0.00848872 0.00619807 0.00150212
0 0.00686719 0.00578184
0.0142587 0.0015843 0.00240549
0.00252843 0.0036422 0.00637652
0.0142645 0.00865185 0.00246289
0.0120056 0.0063342 0.00399416
0.00854085 0.0101037 0.00139255
0.00994122 0.000121383 0.00681103
0.0142515 0.00161266 0.00565453
0.0119794 0.003719 0.00592162
0.00214606 2.64876e-05 0.00578878
0 0.0013659 0.00748679
0.00194745 2.40107e-05 0.00750508
0.0142554 0.00703729 0.00561487
0.00830981 0.00859332 -9.73504e-05
0 0.0075208 0.00859127
0.0019426 0.0075107 0.009976
0.00603869 0.00827987 0.00355392
0.0122598 0.0101465 0.00736855
0.0142575 0.00879482 0.00735742
0.00822906 0.00168842 0.00990127
0.0103508 0.00431382 0.00987677
0 0.0057735 0.00666667
0.00194888 0.0100246 0.00750425
0 0.00863025 0.00752641
0.0122581 0.000149581 0.00236669
0.014261 0.00712518 0.00246865
0.012078 0.0064879 0.00202451
0.0121367 0.00596986 0.00985773
0.0106782 0.00150519 0.0098739
0.0122511 0.000149145 0.00737018
0.0142509 0.00154293 0.00731916
0 0.00143551 0.00581971
0.00852068 0.000104725 0.00840552
0.00600993 7.47592e-05 0.00332737
0.0113302 0.00484623 0.00190423
0.0142585 0.00447098 0.00237971
0.00602962 0.0100732 0.00659313
0.00404161 0.0100491 0.00278113
0.00186912 2.33546e-05 0.00239494
0 0.00727418 0.00419576
0.0142529 0.00594417 0.00649912
0.009958 0.0101204 0.00296399
0.0107083 0.00876418 0.00987302
0 0.00574334 0.00336387
0 0.0043297 0.00416652
0.00979507 0.00590252 0.00988348
0.0142502 0.00319628 0.00674946
0.00602286 7.47789e-05 0.00659473
0.00352882 0.0100432 0.0085678
0.0106914 0.00149841 -0.000121569
0.00823189 0.00676665 0.00990109
0.0142552 0.00768839 0.00841995
0.0122798 0.00769946 0.00985567
0.00987617 0.00314436 -0.000112744
0.00480158 0.00580418 -5.68264e-05
0.0107556 0.00876076 -0.000123058
0.0107364 0.0101296 0.00126279
0.0082606 0.00696855 -9.62737e-05
0.00995921 0.00649276 0.00291644
0.0107281 0.000132355 0.0012636
0.00410664 0.00504925 0.0099491
0.00617029 0.00590889 0.00992471
0.00616883 0.00424194 0.00992478
0.0107252 0.0101277 0.00849014
0.00352473 4.38179e-05 0.0085688
0.014258 0.0059147 0.00320284
0 0.00302218 0.00691532
0.0142502 0.00419106 0.00833103
0.0121429 0.00416666 -0.000136869
0.0142616 0.00288439 0.00138615
0 0.00244495 0.00857025
0.00348143 0.00861278 0.00995675
0.010716 0.00013149 0.00849117
0.0121037 0.00277077 0.00985787
0.0126217 0.0043468 0.00985151
0.00809306 0.0100978 0.00573656
0.00740183 0.00767413 0.00494344
0.00805609 0.0100973 0.00411805
0.00994983 0.01012 0.00680975
0.0043044 0.00696873 0.00994678
0.00594902 0.00440474 -6.94873e-05
0.00404097 5.04458e-05 0.00435551
0.00449318 5.628e-05 0.00577128
0.0142636 0.00436917 0.00097027
0.00519295 0.00840183 0.00152517
0.014255 0.00450228 0.00400436
0.00952374 0.00588997 -0.000110072
0.0122668 0.0101478 0.00236566
0 0.00848692 0.00262374
0.00192402 0.0100245 0.00403546
0 0.00885053 0.00419359
0.00599033 0.00892415 -7.09333e-05
0.00600397 0.0100729 0.00161496
0.00713685 0.00488053 0.00229387
0.010312 0.00464837 -0.000117803
0.00804749 9.92026e-05 0.00412022
0.00808493 9.96944e-05 0.00573827
0.00186938 0.0100236 0.00239398
0.012239 0.00259604 -0.000138271
0.0142505 0.00469437 0.0070522
0.0101569 0.0101229 0.0048803
0.0081862 0.00346414 0.00990133
0.00350446 4.44134e-05 0.00131372
0.0142507 0.00262048 0.00839889
0.00341339 0.00483405 0.00495773
0.00833117 0.00443342 -9.59987e-05
0.0118816 0.00595219 -0.00013387
0.00781789 0.0100944 0.00712673
0.0142517 0.00450258 0.00566833
0.00771582 0.0100934 0.00268279
0.0101486 0.000123822 0.00488163
0.00404466 0.0100493 0.00435338
0 0.00452174 0.00721958
0.00644392 0.00729861 0.0099214
0.0078098 9.63688e-05 0.00712782
0.00514031 0.00513845 0.00353313
0.00606727 0.0100734 0.0049336
0.00606028 7.53805e-05 0.00493597
0.0052344 0.00528198 0.00611103
0 0.005744 0.00499998
0 0.00433013 0.00583333
0.00714154 0.0058331 -8.31871e-05
0.00711586 0.00642731 0.00346783
0.00770729 9.52726e-05 0.00268461
0.0142548 0.0059139 0.00483578
0.00526441 0.00647388 0.00477931
0.00818832 0.00509957 0.00990142
0.0142635 0.00594503 0.00143076
0 0.00666667 0
0.0122736 0.00766835 -0.000138238
0.00475588 5.98256e-05 -5.56537e-05
0 0.01 0.00666667
0.00713023 0.0100854 0.00991372
0 0.00288419 0.00499914
0.0142663 0.00765903 0.00121803
0.0142706 0.00683624 -0.000154742
0 0.005 0.01
0.00713794 0.00297353 -8.27544e-05
0 0.005 0
0.0142603 0.000179515 0.00317326
0.0142648 0.0101621 0.00649848
0.00599236 0.00734863 -7.06245e-05
0.0142528 0.00305888 0.00483566
0.00713759 8.91847e-05 -8.27721e-05
0 0 0.00666667
0.00541733 0.00368426 0.00516037
0.00712334 8.79663e-05 0.00991461
0.0142549 0.000179062 0.00650046
0 0 0.005
0.0125435 0.0101501 0.00107835
0.0142708 0.00894523 0.00106437
0.0142569 0.000179013 0.00483642
0.0142691 0.0051729 -0.000153856
0.00173761 0.00124193 -2.15998e-05
0 0.00122008 0.00122008
0 0.00333333 0.01
0 0.00666667 0.01
0.012544 0.00892973 -0.000141113
0.01427 0.0101619 0.00317128
0.0060166 0.0100728 0.00332521
0.0142571 0.00683543 0.00982581
0 0.00333333 0
0 0.00122008 0.00877992
0.00173451 2.13617e-05 0.00875899
0.00173428 0.00124152 0.00997842
0.0125305 0.010148 0.00863213
0.00173535 0.00880137 0.00997842
0 0.00877992 0.00877992
0.0142589 0.00894341 0.00860865
0.00952839 0.0101152 -0.000110992
0.0142642 0.00139924 0.00106432
0.00173605 0.0100217 0.00875847
0.0125283 0.00892694 0.00985205
0.0142555 0.00517119 0.0098263
0 0 0.00333333
0.00951896 0.000117896 -0.00010902
0.0125341 0.000154599 0.00107839
0.00172509 2.16488e-05 0.00119047
0 0.00877992 0.00122008
0.00173709 0.00880217 -2.18492e-05
0.00172515 0.0100216 0.00118957
0.0142522 0.00139786 0.00860919
0.0125215 0.00137441 0.00985275
0.00950206 0.000116816 0.00988755
0.0125379 0.00137598 -0.000141015
0.0125216 0.000153539 0.00863337
0.0142687 0.00350881 -0.000153707
0.00475035 0.010057 0.0099413
0.00350714 0.0100428 0.00131269
0.00951124 0.0101133 0.00988681
0.0142539 0.00350639 0.00982596
0 0.01 0.005
0.00374391 0.00853383 -4.50709e-05
0.0142667 0.010162 0.00483582
0 0.01 0.00333333
0 0.00166667 0
0.0142653 0.000179513 0.00150985
0 0.00166667 0.01
0 0.00833333 0
0.0142745 0.00850092 -0.000155702
0.0142546 0.00017887 0.0081646
0.0142751 0.0101638 0.00150988
0.0142644 0.0101621 0.00816323
0.00237247 0.0100287 0.00997054
0 0.01 0.00833333
0.0119104 0.0101427 -0.000135157
0.0119011 0.000147716 -0.000134691
0.0118845 0.000146315 0.00986072
0.0118937 0.01014 0.00985979
0 0 0.00833333
0.0142605 0.00849701 0.00982679
0.0023748 3.01958e-05 -2.87732e-05
0 0 0.00166667
0.00476031 0.0100581 -5.69509e-05
0.0142544 0.00184437 0.00982718
0.0142696 0.00184632 -0.000154509
0.00236971 2.9477e-05 0.00997106
0.0023756 0.0100294 -2.94291e-05
0 0.01 0.00166667
0.0142658 0.0101635 0.00982807
0 0 0.01
0.0142811 0.0101649 -0.000156611
0.0142564 0.000177942 0.00982966
0 0.01 0.01
0.0142722 0.000179033 -0.000155849
0 0.01 0
0 0 0
0.00714497 0.0100866 -8.4653e-05
0.00474514 5.91842e-05 0.00994197
0 0.00833333 0.01

CELLS 343 686
1 0
1 1
1 2
1 3
1 4
1 5
1 6
1 7
1 8
1 9
1 10
1 11
1 12
1 13
1 14
1 15
1 16
1 17
1 18
1 19
1 20
1 21
1 22
1 23
1 24
1 25
1 26
1 27
1 28
1 29
1 30
1 31
1 32
1 33
1 34
1 35
1 36
1 37
1 38
1 39
1 40
1 41
1 42
1 43
1 44
1 45
1 46
1 47
1 48
1 49
1 50
1 51
1 52
1 53
1 54
1 55
1 56
1 57
1 58
1 59
1 60
1 61
1 62
1 63
1 64
1 65
1 66
1 67
1 68
1 69
1 70
1 71
1 72
1 73
1 74
1 75
1 76
1 77
1 78
1 79
1 80
1 81
1 82
1 83
1 84
1 85
1 86
1 87
1 88
1 89
1 90
1 91
1 92
1 93
1 94
1 95
1 96
1 97
1 98
1 99
1 100
1 101
1 102
1 103
1 104
1 105
1 106
1 107
1 108
1 109
1 110
1 111
1 112
1 113
1 114
1 115
1 116
1 117
1 118
1 119
1 120
1 121
1 122
1 123
1 124
1 125
1 126
1 127
1 128
1 129
1 130
1 131
1 132
1 133
1 134
1 135
1 136
1 137
1 138
1 139
1 140
1 141
1 142
1 143
1 144
1 145
1 146
1 147
1 148
1 149
1 150
1 151
1 152
1 153
1 154
1 155
1 156
1 157
1 158
1 159
1 160
1 161
1 162
1 163
1 164
1 165
1 166
1 167
1 168
1 169
1 170
1 171
1 172
1 173
1 174
1 175
1 176
1 177
1 178
1 179
1 180
1 181
1 182
1 183
1 184
1 185
1 186
1 187
1 188
1 189
1 190
1 191
1 192
1 193
1 194
1 195
1 196
1 197
1 198
1 199
1 200
1 201
1 202
1 203
1 204
1 205
1 206
1 207
1 208
1 209
1 210
1 211
1 212
1 213
1 214
1 215
1 216
1 217
1 218
1 219
1 220
1 221
1 222
1 223
1 224
1 225
1 226
1 227
1 228
1 229
1 230
1 231
1 232
1 233
1 234
1 235
1 236
1 237
1 238
1 239
1 240
1 241
1 242
1 243
1 244
1 245
1 246
1 247
1 248
1 249
1 250
1 251
1 252
1 253
1 254
1 255
1 256
1 257
1 258
1 259
1 260
1 261
1 262
1 263
1 264
1 265
1 266
1 267
1 268
1 269
1 270
1 271
1 272
1 273
1 274
1 275
1 276
1 277
1 278
1 279
1 280
1 281
1 282
1 283
1 284
1 285
1 286
1 287
1 288
1 289
1 290
1 291
1 292
1 293
1 294
1 295
1 296
1 297
1 298
1 299
1 300
1 301
1 302
1 303
1 304
1 305
1 306
1 307
1 308
1 309
1 310
1 311
1 312
1 313
1 314
1 315
1 316
1 317
1 318
1 319
1 320
1 321
1 322
1 323
1 324
1 325
1 326
1 327
1 328
1 329
1 330
1 331
1 332
1 333
1 334
1 335
1 336
1 337
1 338
1 339
1 340
1 341
1 342

CELL_TYPES 343
1
1
1
1
1
1
1
1
1
1
1
1
1
1
1
1
1
1
1
1
1
1
1
1
1
1
1
1
1
1
1
1
1
1
1
1
1
1
1
1
1
1
1
1
1
1
1
1
1
1
1
1
1
1
1
1
1
1
1
1
1
1
1
1
1
1
1
1
1
1
1
1
1
1
1
1
1
1
1
1
1
1
1
1
1
1
1
1
1
1
1
1
1
1
1
1
1
1
1
1
1
1
1
1
1
1
1
1
1
1
1
1
1
1
1
1
1
1
1
1
1
1
1
1
1
1
1
1
1
1
1
1
1
1
1
1
1
1
1
1
1
1
1
1
1
1
1
1
1
1
1
1
1
1
1
1
1
1
1
1
1
1
1
1
1
1
1
1
1
1
1
1
1
1
1
1
1
1
1
1
1
1
1
1
1
1
1
1
1
1
1
1
1
1
1
1
1
1
1
1
1
1
1
1
1
1
1
1
1
1
1
1
1
1
1
1
1
1
1
1
1
1
1
1
1
1
1
1
1
1
1
1
1
1
1
1
1
1
1
1
1
1
1
1
1
1
1
1
1
1
1
1
1
1
1
1
1
1
1
1
1
1
1
1
1
1
1
1
1
1
1
1
1
1
1
1
1
1
1
1
1
1
1
1
1
1
1
1
1
1
1
1
1
1
1
1
1
1
1
1
1
1
1
1
1
1
1
1
1
1
1
1
1
1
1
1
1
1
1
1
1
1
1
1
1
1
1
1
1
1
1
1
1
1
1
1
1
1
1
1
1
1
1

POINT_DATA 343
FIELD FieldData 8

NodeID_(#) 1 343 int
0
1
2
3
4
5
6
7
8
9
10
11
12
13
14
15
16
17
18
19
20
21
22
23
24
25
26
27
28
29
30
31
32
33
34
35
36
37
38
39
40
41
42
43
44
45
46
47
48
49
50
51
52
53
54
55
56
57
58
59
60
61
62
63
64
65
66
67
68
69
70
71
72
73
74
75
76
77
78
79
80
81
82
83
84
85
86
87
88
89
90
91
92
93
94
95
96
97
98
99
100
101
102
103
104
105
106
107
108
109
110
111
112
113
114
115
116
117
118
119
120
121
122
123
124
125
126
127
128
129
130
131
132
133
134
135
136
137
138
139
140
141
142
143
144
145
146
147
148
149
150
151
152
153
154
155
156
157
158
159
160
161
162
163
164
165
166
167
168
169
170
171
172
173
174
175
176
177
178
179
180
181
182
183
184
185
186
187
188
189
190
191
192
193
194
195
196
197
198
199
200
201
202
203
204
205
206
207
208
209
210
211
212
213
214
215
216
217
218
219
220
221
222
223
224
225
226
227
228
229
230
231
232
233
234
235
236
237
238
239
240
241
242
243
244
245
246
247
248
249
250
251
252
253
254
255
256
257
258
259
260
261
262
263
264
265
266
267
268
269
270
271
272
273
274
275
276
277
278
279
280
281
282
283
284
285
286
287
288
289
290
291
292
293
294
295
296
297
298
299
300
301
302
303
304
305
306
307
308
309
310
311
312
313
314
315
316
317
318
319
320
321
322
323
324
325
326
327
328
329
330
331
332
333
334
335
336
337
338
339
340
341
342

Component_(#) 1 343 int
0
0
0
0
0
0
0
0
0
0
0
0
0
0
0
0
0
0
0
0
0
0
0
0
0
0
0
0
0
0
0
0
0
0
0
0
0
0
0
0
0
0
0
0
0
0
0
0
0
0
0
0
0
0
0
0
0
0
0
0
0
0
0
0
0
0
0
0
0
0
0
0
0
0
0
0
0
0
0
0
0
0
0
0
0
0
0
0
0
0
0
0
0
0
0
0
0
0
0
0
0
0
0
0
0
0
0
0
0
0
0
0
0
0
0
0
0
0
0
0
0
0
0
0
0
0
0
0
0
0
0
0
0
0
0
0
0
0
0
0
0
0
0
0
0
0
0
0
0
0
0
0
0
0
0
0
0
0
0
0
0
0
0
0
0
0
0
0
0
0
0
0
0
0
0
0
0
0
0
0
0
0
0
0
0
0
0
0
0
0
0
0
0
0
0
0
0
0
0
0
0
0
0
0
0
0
0
0
0
0
0
0
0
0
0
0
0
0
0
0
0
0
0
0
0
0
0
0
0
0
0
0
0
0
0
0
0
0
0
0
0
0
0
0
0
0
0
0
0
0
0
0
0
0
0
0
0
0
0
0
0
0
0
0
0
0
0
0
0
0
0
0
0
0
0
0
0
0
0
0
0
0
0
0
0
0
0
0
0
0
0
0
0
0
0
0
0
0
0
0
0
0
0
0
0
0
0
0
0
0
0
0
0
0
0
0
0
0
0
0
0
0
0
0
0
0
0
0
0
0
0
0
0
0
0
0
0
0
0
0
0
0
0

NodalMass_(kg) 1 343 double
3.15563e-06
1.41304e-05
2.20912e-06
1.71484e-05
8.42e-06
9.09306e-06
1.01179e-05
7.52198e-06
6.81096e-06
5.58223e-06
3.10888e-06
1.07575e-05
4.87011e-06
1.64955e-05
3.0246e-06
8.05984e-06
6.703e-06
1.0877e-05
4.18978e-06
8.16106e-06
6.14143e-06
1.17902e-05
2.23114e-06
4.25176e-06
1.09915e-05
7.41467e-06
4.21871e-06
3.92484e-06
3.08766e-06
1.31268e-05
7.72627e-06
1.65404e-05
1.19037e-05
7.97564e-06
3.81683e-06
1.11001e-05
3.81317e-06
1.39137e-05
6.37414e-06
8.00975e-06
7.6712e-06
1.21135e-05
1.6399e-05
2.78633e-06
8.93599e-06
2.58087e-06
7.57362e-06
4.23241e-06
1.31286e-05
3.80168e-06
2.7746e-06
7.16776e-06
1.21307e-05
5.11765e-06
8.19728e-06
4.58094e-06
2.79503e-06
3.26126e-06
4.12443e-06
2.11915e-06
3.35177e-06
3.61669e-06
1.56838e-05
7.33679e-06
8.24695e-06
5.00369e-06
2.82625e-06
7.20276e-06
3.26815e-06
4.18751e-06
2.02785e-06
2.42152e-06
3.11835e-06
5.97459e-06
5.87101e-06
4.09374e-06
5.45463e-06
2.28825e-06
4.49759e-06
4.38192e-06
4.50892e-06
4.39234e-06
4.27273e-06
5.32031e-06
1.53201e-06
2.38869e-06
2.02885e-06
4.38798e-06
3.17972e-06
3.14298e-06
4.61567e-06
5.87645e-06
8.18088e-06
2.48341e-06
1.53815e-05
3.49683e-06
7.35227e-06
2.01314e-06
2.0408e-06
7.98183e-06
4.41293e-06
7.1389e-06
1.20123e-06
5.03343e-06
1.61257e-06
4.12601e-06
8.73748e-06
4.37849e-06
7.97173e-06
2.13557e-06
3.38137e-06
9.48623e-06
7.40262e-06
1.80226e-06
2.10222e-06
7.98889e-06
1.87983e-06
7.44814e-06
4.19782e-06
2.37156e-06
4.31705e-06
6.06441e-06
4.30905e-06
2.16843e-06
1.8986e-06
1.81294e-06
3.89762e-06
2.44299e-06
1.65628e-06
8.01374e-06
1.64513e-06
2.3931e-06
3.01363e-06
2.99431e-06
1.36541e-06
1.87293e-06
2.09622e-06
1.94762e-06
1.87618e-06
6.37913e-06
4.58628e-06
2.02767e-06
1.61999e-06
2.41284e-06
3.8865e-06
4.44973e-06
2.29839e-06
1.17349e-05
3.11811e-06
1.354e-06
3.45063e-06
1.81846e-06
2.9382e-06
1.37381e-06
2.41464e-06
2.10451e-06
2.63927e-06
2.14166e-06
1.7943e-06
3.19976e-06
1.36989e-06
2.43489e-06
2.08158e-06
1.3601e-06
2.17203e-06
1.89924e-06
3.16996e-06
2.6119e-06
2.37677e-06
1.60225e-06
1.90684e-06
5.49206e-06
1.87878e-06
3.14313e-06
2.97301e-06
1.18454e-06
1.89263e-06
2.04166e-06
2.73572e-06
2.42405e-06
3.23083e-06
3.19752e-06
3.2142e-06
1.94492e-06
1.61196e-06
1.86876e-06
3.22435e-06
2.1114e-06
2.96917e-06
6.15288e-06
2.3097e-06
2.39729e-06
2.38029e-06
2.64508e-06
1.66557e-06
1.82377e-06
2.06583e-06
5.73271e-06
2.08467e-06
2.18324e-06
2.43522e-06
3.1188e-06
3.17316e-06
2.05447e-06
1.9592e-06
3.05718e-06
6.44327e-06
2.08796e-06
2.72615e-06
2.15709e-06
1.86812e-06
2.0028e-06
2.10999e-06
2.88994e-06
2.3222e-06
2.3979e-06
1.97629e-06
6.4127e-06
2.16225e-06
3.29198e-06
2.10223e-06
2.66566e-06
1.94415e-06
2.91865e-06
2.58116e-06
2.11703e-06
2.09534e-06
1.91719e-06
7.06046e-06
2.25203e-06
2.06378e-06
6.28159e-06
2.12147e-06
2.90924e-06
2.12921e-06
6.4487e-06
1.41701e-06
2.0682e-06
6.58062e-06
2.52584e-06
2.39732e-06
7.42191e-07
2.22368e-06
7.06751e-07
7.00657e-07
8.93749e-07
2.53536e-06
2.26535e-06
1.33607e-06
7.84725e-07
2.32303e-06
6.06694e-07
6.68276e-07
6.84307e-07
2.51242e-06
2.31629e-06
7.8367e-07
6.80839e-07
6.22692e-06
6.7471e-07
6.65305e-07
7.01158e-07
1.8232e-06
1.90695e-06
6.86722e-07
7.04792e-07
1.86445e-06
2.28572e-06
6.8045e-07
7.16005e-07
1.82373e-06
6.01079e-07
2.02791e-06
7.4579e-07
5.74423e-07
1.80052e-06
1.454e-06
2.2702e-06
1.80636e-06
2.15356e-06
1.79089e-06
1.79456e-06
6.8231e-07
2.24737e-06
1.45239e-06
1.79556e-06
6.97875e-07
6.24265e-07
6.62717e-07
1.44627e-06
1.40138e-06
2.15258e-06
1.82851e-06
1.3994e-06
1.43932e-06
2.19226e-06
6.97732e-07
1.77726e-06
1.79162e-06
6.54258e-07
7.3397e-07
2.34895e-06
7.10392e-07
6.56982e-07
6.26314e-07
2.18926e-06
6.12493e-07
6.03901e-07
5.92831e-07
5.12031e-07
5.11667e-07
4.9467e-07
4.97016e-07
4.96269e-07
5.33079e-07
4.94191e-07
4.97855e-07
4.86862e-07
4.90626e-07
4.94649e-07
4.94954e-07
4.91922e-07
4.89615e-07
4.96354e-07
4.95189e-07
4.82188e-07
1.10854e-06
5.3299e-07
5.44763e-07
5.36655e-07
5.15417e-07
5.01772e-07
5.53774e-07
5.53774e-07
5.53774e-07
5.53774e-07
5.53774e-07
5.53774e-07
5.50785e-07
5.50785e-07
7.45291e-07
7.11668e-07
4.9897e-07

NodalForce_(N) 3 343 double
-2.46286e-06 -2.47966e-09 5.10183e-08
-2.04335e-05 4.58098e-07 -4.82044e-07
0.000558514 8.09232e-05 0.000526121
-1.91518e-05 5.27134e-07 -4.56842e-07
-2.06658e-05 4.41922e-06 -5.23179e-06
-2.14594e-05 4.26906e-06 -6.17108e-06
-4.38546e-05 1.11182e-05 -1.59138e-05
-2.92754e-05 5.37099e-06 -7.41944e-06
-2.03417e-05 6.25679e-06 -8.94156e-06
-1.56502e-05 2.32507e-06 -3.14777e-06
-2.7509e-06 1.24671e-06 -1.92208e-06
-1.89137e-05 6.24507e-06 -8.99287e-06
-5.10404e-06 2.03505e-06 -2.71023e-06
-1.24381e-05 2.4308e-07 -8.36871e-07
-3.34858e-06 1.07045e-06 -1.97245e-06
-2.98223e-05 7.14698e-06 -1.07887e-05
-2.58017e-05 5.04984e-06 -7.10247e-06
-1.17781e-05 4.34077e-07 -7.46913e-07
0.000856477 0.000688779 4.22537e-05
-7.20905e-06 -8.39044e-08 7.25883e-09
-2.51435e-05 5.76622e-06 -7.63714e-06
-4.51051e-05 1.44075e-05 -1.94885e-05
0.00180175 -0.00049616 0.000393865
-1.19152e-05 1.82335e-06 -2.16587e-06
-3.28436e-05 6.08566e-06 -8.11971e-06
-1.9746e-05 2.08581e-06 -3.48595e-06
-2.4918e-06 -8.88176e-08 -8.72169e-08
-8.89478e-06 1.55181e-06 -2.11897e-06
-6.97439e-06 2.05014e-07 -4.54066e-07
-1.90809e-05 -9.27374e-08 -3.39397e-07
-2.38427e-05 1.6806e-06 -3.65669e-06
-7.18894e-05 2.03063e-05 -3.01991e-05
-4.25475e-05 1.42472e-05 -2.17473e-05
-3.84378e-05 1.06117e-05 -1.53957e-05
-2.71225e-05 7.18036e-06 -9.80639e-06
-5.53822e-05 1.23556e-05 -1.6906e-05
-2.4594e-05 5.59734e-06 -7.35952e-06
-8.73435e-05 1.74841e-05 -2.3894e-05
-9.60809e-06 1.20598e-06 -1.75348e-06
-1.31323e-05 2.51534e-06 -5e-06
-1.20722e-05 2.33362e-06 -2.29156e-06
-3.23912e-05 5.43478e-06 -8.70152e-06
-1.71884e-05 3.19992e-07 -4.50697e-07
-5.15473e-06 2.89873e-07 -3.06288e-07
-2.24538e-05 2.33701e-06 -2.61192e-06
0.0011917 8.90861e-05 -0.000339089
-7.76632e-06 1.28586e-07 -9.15895e-08
0.00017869 0.00061602 -0.000694224
-1.45629e-05 2.61698e-07 -9.27542e-07
-2.09701e-06 -1.3158e-08 -1.16979e-08
-8.72224e-06 2.68085e-06 -4.38861e-06
-1.97922e-05 4.75813e-06 -8.21679e-06
-1.59047e-05 -1.15888e-07 -2.94545e-07
-8.82182e-06 3.55944e-07 -7.17801e-07
-7.08468e-06 -7.03625e-09 -1.2744e-07
-2.29186e-05 8.3816e-06 -1.24071e-05
0.00111974 -0.000303016 7.15693e-05
-3.96795e-06 5.58682e-08 -1.72566e-08
0.00211099 -0.000626477 0.000749171
-1.21361e-05 3.89389e-06 -5.66685e-06
-2.60096e-06 3.54833e-07 -9.24321e-07
-1.92654e-05 6.88187e-06 -9.53352e-06
-7.7348e-05 2.08777e-05 -2.79207e-05
-3.56446e-05 1.00411e-05 -1.40325e-05
-1.45366e-05 2.36511e-06 -2.16889e-06
-5.02052e-06 -1.52546e-07 2.70545e-08
-2.44575e-06 4.49848e-07 -4.30858e-07
-1.72883e-05 4.92336e-06 -8.30329e-06
-2.19831e-05 6.06699e-06 -8.43721e-06
-1.70861e-05 6.11323e-06 -8.44081e-06
-5.01441e-06 3.76341e-07 -6.20423e-07
-1.31576e-06 3.26332e-07 -6.05514e-07
-3.93723e-06 5.18655e-07 -4.62688e-07
-1.29043e-05 2.07504e-06 -3.94446e-06
-1.05081e-05 7.97316e-07 -9.84176e-07
0.00180079 -0.000302949 -0.000604914
-1.52e-05 2.27526e-06 -3.06045e-06
-2.38014e-06 -3.04709e-09 -2.5761e-09
-1.18636e-05 2.96611e-06 -4.85762e-06
-1.51713e-05 3.09579e-06 -4.89361e-06
-1.09525e-05 1.45806e-06 -2.43809e-06
-7.88994e-06 1.41588e-06 -2.28054e-06
-2.7655e-05 7.95132e-06 -1.11849e-05
-1.13601e-05 4.9326e-07 -8.54664e-07
0.00137044 0.000260535 0.000290397
-2.62414e-06 -7.87351e-08 4.94181e-08
0.00127672 -0.000288119 -0.000183184
0.00121758 -0.000274302 -0.000476687
0.00107691 0.000800496 -0.000513186
-6.28813e-06 2.70189e-07 -4.65853e-07
-2.63058e-06 -7.51844e-08 -1.29607e-08
-1.67542e-05 2.60344e-06 -3.95174e-06
-1.3466e-05 1.01503e-06 -3.0602e-06
-5.10777e-06 2.42457e-06 -3.78192e-06
-4.53235e-05 1.99313e-05 -2.84239e-05
-1.23257e-05 3.59348e-06 -4.66227e-06
-2.3181e-05 5.69415e-06 -6.98908e-06
-1.19539e-05 3.76947e-06 -5.27966e-06
0.00195106 0.000908897 1.48029e-05
-3.09622e-05 6.30611e-06 -8.47395e-06
-1.71639e-05 3.44258e-06 -4.50392e-06
-2.87825e-05 5.24973e-06 -7.61972e-06
-2.64515e-06 2.22122e-07 -2.14379e-07
-2.96148e-05 7.36884e-06 -9.86399e-06
-2.804e-06 2.49299e-07 -2.84925e-07
-1.37736e-05 3.25975e-06 -4.52778e-06
-4.06013e-05 6.81405e-06 -8.75036e-06
-1.54463e-05 6.32824e-06 -8.84724e-06
-1.97108e-05 6.37941e-06 -8.24822e-06
-1.01426e-06 -5.5431e-08 -1.18385e-08
-2.03886e-05 3.39098e-06 -4.94917e-06
-3.88491e-05 4.75692e-06 -6.82391e-06
-3.34098e-05 4.70193e-06 -7.52428e-06
0.000466765 0.000407579 -0.0005686
-1.23001e-05 4.01747e-06 -5.52792e-06
-6.74204e-06 2.77922e-08 -2.69902e-07
-1.41731e-05 3.5552e-06 -4.86424e-06
-4.05938e-05 1.00438e-05 -1.40529e-05
-2.25009e-05 3.26756e-06 -4.24201e-06
-5.5847e-06 2.44262e-06 -3.19807e-06
-2.06191e-05 8.17705e-06 -1.14484e-05
-2.52962e-05 8.19818e-06 -1.1807e-05
-2.57567e-06 -2.12219e-08 -6.61942e-08
0.00143371 3.83857e-05 0.000477982
-9.14479e-07 2.34072e-08 2.74901e-08
-1.10494e-05 3.32851e-06 -4.7686e-06
-2.07403e-05 2.6868e-06 -3.93258e-06
0.00185796 0.000323985 -0.00098429
-9.7167e-07 1.06956e-08 -2.67123e-08
-2.49512e-05 2.51677e-06 -2.66314e-06
-8.79908e-06 2.40814e-06 -3.35634e-06
-1.42083e-05 4.40563e-06 -6.39658e-06
-4.03244e-06 2.12859e-06 -3.32869e-06
-7.51759e-06 2.9682e-06 -4.89848e-06
0.00179551 -0.000115119 0.000394331
-1.54162e-06 -6.25582e-08 1.82974e-08
0.00156602 -0.000228329 0.000546716
-9.03986e-06 2.90049e-06 -3.94959e-06
-1.34461e-05 3.46831e-06 -4.85475e-06
-3.93277e-05 8.77223e-06 -1.22255e-05
-1.61578e-05 6.21611e-06 -9.64267e-06
-4.12993e-06 2.36632e-06 -3.52437e-06
-4.86264e-06 2.39034e-06 -3.33769e-06
-1.01591e-05 4.57675e-06 -6.49385e-06
0.00104299 0.000553744 -0.000814637
-6.67488e-06 3.46842e-06 -4.88713e-06
-4.37734e-06 9.56416e-07 -9.75026e-07
-6.41151e-05 1.44365e-05 -2.00545e-05
-2.04102e-05 5.81445e-06 -8.08926e-06
-3.80119e-06 4.81169e-07 -5.33737e-07
-8.04729e-06 4.37328e-07 -3.86274e-07
-1.18367e-06 -4.22825e-08 9.05741e-09
0.00224364 0.00049146 6.54707e-05
-7.5963e-06 2.51588e-06 -3.64554e-06
-1.37076e-05 2.48916e-06 -3.05778e-06
-7.66887e-06 2.36421e-06 -3.61262e-06
0.00151126 -2.84529e-05 -0.000682487
0.00135905 0.000704515 0.00161391
-4.79337e-06 1.54535e-06 -2.67884e-06
-1.52914e-05 5.90097e-06 -8.55076e-06
-1.81207e-06 5.78061e-07 -5.76097e-07
-3.45775e-06 1.8124e-07 -3.48639e-07
-1.03801e-05 2.5366e-06 -3.40444e-06
-3.15945e-06 7.81957e-07 -1.50866e-06
-1.15677e-05 3.97227e-06 -5.85546e-06
-7.57648e-06 2.67071e-06 -4.06155e-06
-1.56744e-05 3.12944e-06 -4.48715e-06
-7.29499e-06 3.32186e-07 -8.22316e-07
-1.58553e-05 2.75321e-06 -3.86408e-06
-1.05238e-05 1.92408e-06 -2.51663e-06
-9.43307e-06 1.21441e-06 -1.93389e-06
-2.69283e-05 5.05404e-06 -7.10221e-06
-8.13206e-06 2.27141e-06 -3.07613e-06
-2.95961e-06 2.99225e-07 -9.15364e-07
-4.4735e-06 7.48064e-07 -1.99714e-06
-1.55559e-06 3.47141e-07 -8.13334e-07
-8.19681e-06 2.15607e-06 -3.17876e-06
-1.2157e-06 3.21314e-07 -2.68822e-07
-1.81293e-05 5.06178e-06 -7.07586e-06
0.00198735 5.77411e-05 0.000390372
-1.45385e-05 5.88703e-06 -8.77613e-06
-2.01813e-05 4.5892e-06 -6.46101e-06
-2.08705e-05 6.11414e-06 -8.36289e-06
0.00152837 -0.000271186 -0.000267499
-1.68822e-06 1.70976e-07 -3.24755e-07
-3.98546e-06 2.24594e-06 -3.13605e-06
-8.86527e-06 4.51753e-06 -6.80047e-06
-7.02448e-06 3.10707e-06 -4.74883e-06
-1.16244e-05 2.00146e-06 -2.32162e-06
-2.06958e-05 2.99411e-06 -3.76992e-06
-1.0041e-05 1.57438e-06 -1.72446e-06
-1.07745e-05 2.3823e-06 -3.1108e-06
-2.74005e-06 9.3342e-08 -7.56408e-07
-8.60943e-06 7.76471e-07 -1.46393e-06
-1.89815e-06 3.19711e-07 -2.42963e-07
-2.01827e-06 3.96578e-07 -3.38891e-07
-1.44186e-05 3.87572e-06 -5.37171e-06
-1.72605e-05 1.36136e-06 -2.13584e-06
-1.25351e-05 3.85786e-06 -5.45679e-06
-1.17523e-05 1.86899e-06 -2.86408e-06
-1.70813e-05 3.64583e-06 -4.74779e-06
0.00184862 -0.000517751 -0.000234571
-2.99506e-06 -4.13384e-08 2.60203e-08
0.0014997 -0.000617538 0.00021109
-7.69032e-06 7.23745e-07 -1.08153e-06
-1.15518e-05 1.22736e-06 -1.44891e-06
-2.17591e-05 2.63047e-06 -4.30215e-06
-1.14723e-05 2.1841e-06 -3.1661e-06
-6.81963e-06 1.95412e-06 -2.21133e-06
-4.45329e-06 1.54721e-06 -1.75828e-06
-1.88863e-06 -1.31184e-08 5.62999e-08
-1.19913e-05 2.97577e-06 -4.10822e-06
-1.06382e-05 3.86168e-06 -5.64166e-06
-1.50077e-05 3.03576e-06 -3.83154e-06
-3.90065e-06 1.46794e-06 -2.56119e-06
-3.06575e-06 2.46884e-07 -3.24232e-07
-8.11704e-06 3.70071e-06 -5.38503e-06
-8.58513e-06 2.75818e-07 -5.69275e-07
-9.60808e-06 1.45e-06 -2.30417e-06
-2.17422e-05 4.40606e-06 -6.41413e-06
-7.29809e-06 1.27606e-06 -1.70072e-06
-1.45364e-05 4.90354e-06 -7.0585e-06
-8.83919e-06 1.23293e-06 -1.40041e-06
-8.80936e-06 3.06933e-06 -4.06288e-06
-5.58047e-06 3.05329e-07 -2.27563e-07
0.00167583 0.000194554 0.000782768
-3.82777e-06 6.54525e-07 -1.45847e-06
-3.16427e-06 1.27904e-06 -1.57671e-06
-1.56356e-05 1.15685e-06 -1.56323e-06
-7.13408e-06 8.51833e-07 -7.94338e-07
-3.3599e-06 8.81689e-07 -7.76192e-07
-1.2077e-05 9.89356e-07 -1.66023e-06
0.00234498 -0.00116802 6.99536e-05
0.00181298 0.00054631 -0.00103783
-8.74043e-06 8.42261e-07 -1.6965e-06
-2.17421e-05 2.65649e-06 -3.69635e-06
-3.83067e-06 9.44821e-07 -1.14892e-06
-1.2567e-05 3.795e-06 -5.41873e-06
-1.48462e-05 1.0318e-06 -1.45826e-06
-5.03799e-06 1.40989e-06 -2.81835e-06
-1.72979e-05 4.46299e-06 -6.1941e-06
0.000908489 0.000688026 5.35465e-05
-1.6031e-05 3.23019e-06 -4.54767e-06
-1.46083e-06 2.43639e-07 -2.83578e-07
0.000864034 -4.53623e-06 -0.000950068
-2.21866e-06 4.78469e-07 -7.77005e-07
0.00240811 -0.000907108 0.000107718
-1.74533e-05 4.21785e-06 -5.83616e-06
-1.06013e-05 2.51383e-06 -3.52358e-06
0.000666704 -0.001069 0.000272484
-8.34168e-06 1.17516e-06 -1.80395e-06
0.000795239 0.0011544 -4.85378e-05
-3.52512e-06 1.26064e-06 -1.76894e-06
-4.48476e-06 1.30103e-06 -1.7965e-06
-9.24857e-06 7.1183e-07 -1.39881e-06
-1.24655e-05 4.27753e-06 -6.12077e-06
-2.45515e-06 5.00453e-07 -6.40604e-07
0.000606368 -0.000184894 0.000766547
-1.1958e-05 1.2877e-06 -1.61618e-06
-6.13776e-07 3.75332e-07 -5.99331e-07
-2.77746e-06 1.23617e-06 -1.77239e-06
0.000342364 -0.000565579 0.00100145
-1.37669e-05 2.84139e-06 -3.77241e-06
-1.53847e-05 3.63256e-06 -4.91271e-06
-3.24407e-06 1.27981e-06 -1.82526e-06
-5.30295e-06 1.3128e-06 -1.8655e-06
-1.42716e-06 6.46666e-08 9.12906e-09
0.00115166 0.000689236 -4.9788e-05
0.000533163 -0.00089812 0.000354058
0.00048655 -0.00102489 0.000347305
-1.39211e-05 2.78791e-06 -3.84813e-06
-4.60794e-06 1.15078e-06 -1.54074e-06
-6.99312e-06 7.89695e-07 -6.73019e-07
-3.47636e-06 1.35274e-06 -2.04865e-06
0.000818127 0.000454557 0.000165241
0.000525122 0.000328508 -0.000484324
-5.60242e-07 3.78394e-08 -1.63414e-08
-8.87903e-07 3.43804e-09 -1.63007e-08
-9.14704e-06 2.75203e-06 -3.98352e-06
-1.22854e-06 2.5125e-08 -2.23488e-08
0.000850441 -0.000176504 -0.000359772
-9.98843e-06 3.33635e-06 -4.85892e-06
-4.31153e-06 6.54578e-07 -8.888e-07
-1.40336e-05 4.34469e-06 -5.90004e-06