# vtk DataFile Version 4.2
vtk output
ASCII
DATASET UNSTRUCTURED_GRID

POINTS 343 double
0.00148119 0.00421007 -1.4403e-05
0.00286434 0.00501221 0.00214767
0 0.00419538 0.00112517
0.0025507 0.00198068 0.00191743
0.00683759 0.00248435 0.0049711
0.00683171 0.00390575 0.00633822
0.0100617 0.00489291 0.00491285
0.00822234 0.0049442 0.00361795
0.00902958 0.00339312 0.00683865
0.00659066 0.00506534 0.00494062
0.00552258 0.0011807 0.00995097
0.00697968 0.00215958 0.00784455
0.00554408 5.56924e-05 0.00826968
0.00265506 0.00202915 0.00800818
0.00565707 0.00259498 0.00994952
0.0091701 0.0065522 0.00687063
0.0084614 0.00627909 0.00510957
0.00298586 0.00221539 0.00511801
0 0.00143586 0.00417514
0.00210416 0.00348736 0.00401688
0.00903912 0.00329901 0.00308078
0.0102384 0.00233532 0.00497638
0 0.00270918 0.00154168
0.0055089 0.00149193 -5.00542e-05
0.0066295 0.00226372 0.0021365
0.00524012 0.00358432 0.00155445
0.00177903 1.70266e-05 0.00404323
0.00554606 5.623e-05 0.00163629
0.00346513 0.00698816 -3.21324e-05
0.0025518 0.0080789 0.00191991
0.00539702 0.00630643 0.00159484
0.0105363 0.00810908 0.00791177
0.0105048 0.00493948 0.007937
0.0110544 0.00621108 0.00585485
0.0131442 0.00898046 0.00408337
0.00998484 0.00775248 0.00487793
0.0112723 0.0101187 0.00407069
0.0105151 0.00809605 0.00192261
0.00467002 0.00308631 0.00691759
0.0058568 0.00372523 0.00827258
0.00514941 0.001658 0.0059225
0.00659213 0.0077405 0.00761985
0.00261723 0.00803439 0.00796521
0.00371681 0.0100364 0.00709272
0.00515841 0.00845492 0.00591074
0 0.00695361 0.00262895
0.00216956 0.00626148 0.00406695
0 0.0040177 0.00850214
0.00305028 0.0050168 0.0076331
0.001887 0.00419318 0.00998215
0.00944502 0.00722648 0.00992168
0.00806376 0.00606132 0.00834997
0.00270157 0.007969 0.00471595
0.00401126 0.00698502 0.00643083
0.0020905 0.00609966 0.00590605
0.0131403 0.00594146 0.0082061
0 0.00718191 0.00711644
0.00208911 0.0057952 -2.0102e-05
0 0.00577432 0.00158701
0.0131406 0.00731498 0.00700616
0.00377904 0.00338842 0.00996488
0.0131514 0.00157349 0.00406509
0.0106306 0.00207065 0.00188492
0.0110766 0.00363433 0.00390282
0.00493175 0.00170309 0.00408248
0.00198314 0.0100195 0.00579595
0.00371946 3.73135e-05 0.00709369
0.00806238 0.00426238 0.00830809
0.0131444 0.00741043 0.00408617
0.0112822 0.000111602 0.00407099
0.00442142 0.00291824 -4.05205e-05
0.0035628 0.00157674 0.00996703
0.00373532 3.76178e-05 0.00279693
0.00632916 0.00526298 0.00749918
0.00417452 0.00319067 0.00312789
0 0.00849157 0.00581511
0.00643151 0.00374117 0.00372719
0.00203049 0.0027293 -1.94704e-05
0.00762853 0.00840094 0.00993533
0.00786801 0.0100794 0.00843989
0.0055401 0.010055 0.00826902
0.00528314 0.00855511 0.00995277
0.0131408 0.00862204 0.00570398
0.00415157 0.00687768 0.00311097
0 0.00748929 0.00137438
0.00180822 0.00750722 -1.75057e-05
0 0.00287343 0.00335182
0 0.00580816 0.00831736
0 0.00429792 0.00253898
0.00334727 0.00433159 -3.11041e-05
0.00188615 0.00583782 0.00998215
0.00682418 0.00654392 0.00634025
0.00474698 0.00655891 0.00819149
0.00915077 0.00271913 0.0099231
0.0105679 0.00206504 0.00794844
0.00919443 9.23007e-05 0.00299951
0.00794198 0.00174483 0.00354107
0.0131506 0.00300897 0.00324068
0 0.00140616 0.00256446
0.00839457 0.00831209 0.00634895
0.00767952 0.00151389 -6.92544e-05
0.0079646 0.00363265 0.00153074
0.0041532 0.0100407 0.00578607
0.0112619 0.0101186 0.00573733
0.00338198 0.00144029 -3.13564e-05
0.00788663 7.93029e-05 0.00142207
0.00827766 0.00837136 0.00354251
0.0112725 0.000111575 0.00573813
0.00818226 0.00175564 0.00629509
0.00184794 0.00258204 0.00998242
0.00938391 0.00727744 -8.43989e-05
0.00681371 0.00775853 0.0021055
0.00783924 0.00617256 0.00153025
0 0.00686719 0.00578184
0.0131557 0.0015443 0.00245417
0.00233719 0.00363338 0.00638566
0.0131477 0.00861736 0.00251232
0.0110784 0.00630162 0.0040374
0.0078803 0.0100807 0.00142116
0.00918569 9.15817e-05 0.00685002
0.0131484 0.00157293 0.00570933
0.0110582 0.00368513 0.00596765
0.00198463 1.90478e-05 0.00579647
0 0.0013659 0.00748679
0.00180083 1.72279e-05 0.00751194
0.0131425 0.00700175 0.00566953
0.00766975 0.00856955 -7.05488e-05
0 0.0075208 0.00859127
0.0017944 0.00750378 0.00998323
0.0055773 0.00826108 0.00357564
0.0113033 0.0101175 0.00741829
0.0131399 0.00876031 0.0074155
0.00760239 0.00166371 0.00993509
0.00955538 0.00428377 0.00991998
0 0.0057735 0.00666667
0.00179988 0.0100178 0.00751136
0 0.00863025 0.00752641
0.0113212 0.000113575 0.00240794
0.0131479 0.00709009 0.00251802
0.011145 0.00645569 0.00206514
0.0111976 0.00593696 0.00990933
0.00986081 0.00147444 0.00991855
0.0113135 0.00011323 0.00741935
0.0131473 0.00150312 0.00737668
0 0.00143551 0.00581971
0.00787459 7.87785e-05 0.00843995
0.0055582 5.59016e-05 0.00334817
0.0104603 0.00481449 0.00194191
0.0131505 0.00443253 0.00242818
0.00556539 0.0100555 0.0066164
0.00373177 0.0100362 0.00279592
0.00172882 1.6802e-05 0.00240156
0 0.00727418 0.00419576
0.013142 0.00590681 0.00655552
0.0091855 0.010095 0.00299874
0.00987675 0.00873575 0.00991844
0 0.00574334 0.00336387
0 0.0043297 0.00416652
0.00904032 0.00587405 0.00992458
0.0131441 0.00315689 0.0068063
0.00556945 5.59254e-05 0.00661743
0.00325735 0.010032 0.0085814
0.00987584 0.00146724 -8.75936e-05
0.00759828 0.00674201 0.00993539
0.0131399 0.0076528 0.00847933
0.0113256 0.0076674 0.00990818
0.00912247 0.00311503 -8.11383e-05
0.00443621 0.00578792 -4.0731e-05
0.00992275 0.00873248 -8.83299e-05
0.00990221 0.0101032 0.00129867
0.00762708 0.00694393 -6.96066e-05
0.00919408 0.00646449 0.0029508
0.00991205 0.000100706 0.00129841
0.00379313 0.00503532 0.00996514
0.00569796 0.00588879 0.00994977
0.00569814 0.00422192 0.0099496
0.00989062 0.0101009 0.00853474
0.00325946 3.22354e-05 0.00858191
0.0131477 0.00587703 0.003253
0 0.00302218 0.00691532
0.013142 0.00415219 0.00838989
0.0112083 0.00413263 -9.86548e-05
0.0131561 0.00284519 0.00143299
0 0.00244495 0.00857025
0.003214 0.00860132 0.00997054
0.00989891 9.9966e-05 0.00853525
0.0111725 0.00273635 0.00990908
0.011646 0.0043118 0.00990517
0.00746829 0.0100756 0.00576769
0.00683514 0.00765169 0.00497087
0.00743451 0.0100752 0.00414734
0.00917744 0.0100944 0.00684948
0.00397479 0.00695401 0.00996391
0.00549703 0.00438535 -5.00252e-05
0.003738 3.74376e-05 0.00436989
0.00415609 4.18123e-05 0.00578748
0.0131553 0.00433072 0.0010166
0.0047959 0.00838537 0.00154305
0.0131473 0.00446404 0.00405633
0.00879335 0.00586228 -7.95465e-05
0.0113108 0.010119 0.00240813
0 0.00848692 0.00262374
0.00177717 0.0100176 0.00404264
0 0.00885053 0.00419359
0.00553035 0.008906 -5.10841e-05
0.0055422 0.0100552 0.00163571
0.00659438 0.00485796 0.00231813
0.00952193 0.00461867 -8.49015e-05
0.0074397 7.47128e-05 0.00414835
0.00747409 7.50972e-05 0.00576856
0.00172669 0.0100169 0.00240098
0.0112995 0.00256132 -9.98745e-05
0.0131417 0.0046561 0.00710969
0.00936833 0.0100972 0.00491823
0.00756082 0.00343916 0.00993482
0.00324164 3.27e-05 0.00132575
0.013145 0.00258097 0.00845777
0.00315481 0.00482236 0.00497008
0.00769564 0.00440795 -6.93081e-05
0.0109648 0.0059203 -9.60687e-05
0.00721381 0.0100726 0.00715742
0.0131436 0.00446429 0.00572308
0.00712075 0.010072 0.00270984
0.0093776 9.34346e-05 0.00491847
0.0037347 0.0100363 0.00436827
0 0.00452174 0.00721958
0.00594867 0.00727839 0.00994781
0.00721943 7.24892e-05 0.00715819
0.00475087 0.00512138 0.00355163
0.00560083 0.0100558 0.00495612
0.00560482 5.62804e-05 0.00495776
0.00483711 0.00526461 0.0061303
0 0.005744 0.00499998
0 0.00433013 0.00583333
0.00659634 0.00581055 -6.0078e-05
0.00657325 0.00640502 0.00349291
0.0071255 7.17096e-05 0.00271074
0.0131445 0.005876 0.00488928
0.00486434 0.00645643 0.0047985
0.00756059 0.00507436 0.00993512
0.0131526 0.00590768 0.00147773
0 0.00666667 0
0.0113217 0.00763652 -9.90908e-05
0.00439792 4.46976e-05 -4.00692e-05
0 0.01 0.00666667
0.00657752 0.0100657 0.00994292
0 0.00288419 0.00499914
0.0131515 0.00762433 0.00126474
0.013157 0.00680008 -0.000109302
0 0.005 0.01
0.00659622 0.00295106 -5.96339e-05
0 0.005 0
0.0131592 0.000137389 0.00322296
0.0131438 0.010131 0.00655546
0.00553413 0.00732948 -5.09046e-05
0.0131476 0.00301916 0.00488884
0.00659835 6.70603e-05 -5.97143e-05
0 0 0.00666667
0.00500769 0.00366643 0.0051801
0.00658304 6.62671e-05 0.00994342
0.0131534 0.000137101 0.00655673
0 0 0.005
0.0115646 0.0101212 0.00111977
0.013153 0.00891145 0.00111113
0.0131558 0.000136976 0.00488954
0.0131585 0.0051352 -0.000108924
0.00160672 0.00123592 -1.53964e-05
0 0.00122008 0.00122008
0 0.00333333 0.01
0 0.00666667 0.01
0.0115672 0.00889891 -0.000101006
0.0131494 0.0101309 0.0032224
0.00555425 0.0100553 0.00334684
0.0131428 0.0067991 0.00988738
0 0.00333333 0
0 0.00122008 0.00877992
0.00160383 1.54324e-05 0.00876536
0.00160318 0.00123556 0.00998471
0.0115514 0.0101187 0.00868467
0.00160274 0.00879529 0.0099849
0 0.00877992 0.00877992
0.0131407 0.00890928 0.00866838
0.00878965 0.010091 -7.95913e-05
0.0131612 0.00135901 0.00111064
0.00160307 0.0100157 0.00876487
0.0115515 0.00889585 0.00990575
0.0131446 0.00513342 0.00988769
0 0 0.00333333
0.00879655 8.90572e-05 -7.85863e-05
0.0115747 0.000117869 0.0011187
0.00159551 1.5654e-05 0.00119636
0 0.00877992 0.00122008
0.00160468 0.00879596 -1.55704e-05
0.00159334 0.0100156 0.00119601
0.0131486 0.00135797 0.00866852
0.0115589 0.00133893 0.00990591
0.0087783 8.84368e-05 0.009927
0.0115763 0.00133995 -0.000101806
0.0115614 0.000117096 0.00868555
0.0131613 0.00346988 -0.000109042
0.00438349 0.0100429 0.00995999
0.00323821 0.0100314 0.00132526
0.00877131 0.0100889 0.0099265
0.013146 0.00346702 0.00988713
0 0.01 0.005
0.00345762 0.00852132 -3.21805e-05
0.013146 0.010131 0.00488933
0 0.01 0.00333333
0 0.00166667 0
0.013164 0.000137643 0.00155676
0 0.00166667 0.01
0 0.00833333 0
0.0131569 0.00846694 -0.000110548
0.0131526 0.000137307 0.00822346
0.0131542 0.0101327 0.00155758
0.0131429 0.0101308 0.00822257
0.00218989 0.0100213 0.00997947
0 0.01 0.00833333
0.0109821 0.010115 -9.63405e-05
0.0109919 0.000112586 -9.7121e-05
0.0109742 0.000111824 0.00991084
0.010965 0.0101118 0.00991033
0 0 0.00833333
0.0131426 0.00846235 0.0098884
0.00219656 2.21396e-05 -2.05647e-05
0 0 0.00166667
0.0043941 0.0100435 -4.06452e-05
0.0131494 0.00180494 0.00988831
0.0131653 0.00180645 -0.000109864
0.00219113 2.15865e-05 0.00997978
0.00219355 0.0100214 -2.08646e-05
0 0.01 0.00166667
0.0131442 0.010132 0.00988942
0 0 0.01
0.0131596 0.0101337 -0.000110908
0.0131543 0.000136771 0.00989068
0 0.01 0.01
0.0131707 0.00013709 -0.000111092
0 0.01 0
0 0 0
0.0065934 0.0100668 -6.09328e-05
0.00438642 4.43857e-05 0.0099607
0 0.00833333 0.01

CELLS 343 686
1 0
1 1
1 2
1 3
1 4
1 5
1 6
1 7
1 8
1 9
1 10
1 11
1 12
1 13
1 14
1 15
1 16
1 17
1 18
1 19
1 20
1 21
1 22
1 23
1 24
1 25
1 26
1 27
1 28
1 29
1 30
1 31
1 32
1 33
1 34
1 35
1 36
1 37
1 38
1 39
1 40
1 41
1 42
1 43
1 44
1 45
1 46
1 47
1 48
1 49
1 50
1 51
1 52
1 53
1 54
1 55
1 56
1 57
1 58
1 59
1 60
1 61
1 62
1 63
1 64
1 65
1 66
1 67
1 68
1 69
1 70
1 71
1 72
1 73
1 74
1 75
1 76
1 77
1 78
1 79
1 80
1 81
1 82
1 83
1 84
1 85
1 86
1 87
1 88
1 89
1 90
1 91
1 92
1 93
1 94
1 95
1 96
1 97
1 98
1 99
1 100
1 101
1 102
1 103
1 104
1 105
1 106
1 107
1 108
1 109
1 110
1 111
1 112
1 113
1 114
1 115
1 116
1 117
1 118
1 119
1 120
1 121
1 122
1 123
1 124
1 125
1 126
1 127
1 128
1 129
1 130
1 131
1 132
1 133
1 134
1 135
1 136
1 137
1 138
1 139
1 140
1 141
1 142
1 143
1 144
1 145
1 146
1 147
1 148
1 149
1 150
1 151
1 152
1 153
1 154
1 155
1 156
1 157
1 158
1 159
1 160
1 161
1 162
1 163
1 164
1 165
1 166
1 167
1 168
1 169
1 170
1 171
1 172
1 173
1 174
1 175
1 176
1 177
1 178
1 179
1 180
1 181
1 182
1 183
1 184
1 185
1 186
1 187
1 188
1 189
1 190
1 191
1 192
1 193
1 194
1 195
1 196
1 197
1 198
1 199
1 200
1 201
1 202
1 203
1 204
1 205
1 206
1 207
1 208
1 209
1 210
1 211
1 212
1 213
1 214
1 215
1 216
1 217
1 218
1 219
1 220
1 221
1 222
1 223
1 224
1 225
1 226
1 227
1 228
1 229
1 230
1 231
1 232
1 233
1 234
1 235
1 236
1 237
1 238
1 239
1 240
1 241
1 242
1 243
1 244
1 245
1 246
1 247
1 248
1 249
1 250
1 251
1 252
1 253
1 254
1 255
1 256
1 257
1 258
1 259
1 260
1 261
1 262
1 263
1 264
1 265
1 266
1 267
1 268
1 269
1 270
1 271
1 272
1 273
1 274
1 275
1 276
1 277
1 278
1 279
1 280
1 281
1 282
1 283
1 284
1 285
1 286
1 287
1 288
1 289
1 290
1 291
1 292
1 293
1 294
1 295
1 296
1 297
1 298
1 299
1 300
1 301
1 302
1 303
1 304
1 305
1 306
1 307
1 308
1 309
1 310
1 311
1 312
1 313
1 314
1 315
1 316
1 317
1 318
1 319
1 320
1 321
1 322
1 323
1 324
1 325
1 326
1 327
1 328
1 329
1 330
1 331
1 332
1 333
1 334
1 335
1 336
1 337
1 338
1 339
1 340
1 341
1 342

CELL_TYPES 343
1
1
1
1
1
1
1
1
1
1
1
1
1
1
1
1
1
1
1
1
1
1
1
1
1
1
1
1
1
1
1
1
1
1
1
1
1
1
1
1
1
1
1
1
1
1
1
1
1
1
1
1
1
1
1
1
1
1
1
1
1
1
1
1
1
1
1
1
1
1
1
1
1
1
1
1
1
1
1
1
1
1
1
1
1
1
1
1
1
1
1
1
1
1
1
1
1
1
1
1
1
1
1
1
1
1
1
1
1
1
1
1
1
1
1
1
1
1
1
1
1
1
1
1
1
1
1
1
1
1
1
1
1
1
1
1
1
1
1
1
1
1
1
1
1
1
1
1
1
1
1
1
1
1
1
1
1
1
1
1
1
1
1
1
1
1
1
1
1
1
1
1
1
1
1
1
1
1
1
1
1
1
1
1
1
1
1
1
1
1
1
1
1
1
1
1
1
1
1
1
1
1
1
1
1
1
1
1
1
1
1
1
1
1
1
1
1
1
1
1
1
1
1
1
1
1
1
1
1
1
1
1
1
1
1
1
1
1
1
1
1
1
1
1
1
1
1
1
1
1
1
1
1
1
1
1
1
1
1
1
1
1
1
1
1
1
1
1
1
1
1
1
1
1
1
1
1
1
1
1
1
1
1
1
1
1
1
1
1
1
1
1
1
1
1
1
1
1
1
1
1
1
1
1
1
1
1
1
1
1
1
1
1
1
1
1
1
1
1
1
1
1
1
1
1
1
1
1
1
1
1
1
1
1
1
1
1
1
1
1
1
1
1

POINT_DATA 343
FIELD FieldData 8

NodeID_(#) 1 343 int
0
1
2
3
4
5
6
7
8
9
10
11
12
13
14
15
16
17
18
19
20
21
22
23
24
25
26
27
28
29
30
31
32
33
34
35
36
37
38
39
40
41
42
43
44
45
46
47
48
49
50
51
52
53
54
55
56
57
58
59
60
61
62
63
64
65
66
67
68
69
70
71
72
73
74
75
76
77
78
79
80
81
82
83
84
85
86
87
88
89
90
91
92
93
94
95
96
97
98
99
100
101
102
103
104
105
106
107
108
109
110
111
112
113
114
115
116
117
118
119
120
121
122
123
124
125
126
127
128
129
130
131
132
133
134
135
136
137
138
139
140
141
142
143
144
145
146
147
148
149
150
151
152
153
154
155
156
157
158
159
160
161
162
163
164
165
166
167
168
169
170
171
172
173
174
175
176
177
178
179
180
181
182
183
184
185
186
187
188
189
190
191
192
193
194
195
196
197
198
199
200
201
202
203
204
205
206
207
208
209
210
211
212
213
214
215
216
217
218
219
220
221
222
223
224
225
226
227
228
229
230
231
232
233
234
235
236
237
238
239
240
241
242
243
244
245
246
247
248
249
250
251
252
253
254
255
256
257
258
259
260
261
262
263
264
265
266
267
268
269
270
271
272
273
274
275
276
277
278
279
280
281
282
283
284
285
286
287
288
289
290
291
292
293
294
295
296
297
298
299
300
301
302
303
304
305
306
307
308
309
310
311
312
313
314
315
316
317
318
319
320
321
322
323
324
325
326
327
328
329
330
331
332
333
334
335
336
337
338
339
340
341
342

Component_(#) 1 343 int
0
0
0
0
0
0
0
0
0
0
0
0
0
0
0
0
0
0
0
0
0
0
0
0
0
0
0
0
0
0
0
0
0
0
0
0
0
0
0
0
0
0
0
0
0
0
0
0
0
0
0
0
0
0
0
0
0
0
0
0
0
0
0
0
0
0
0
0
0
0
0
0
0
0
0
0
0
0
0
0
0
0
0
0
0
0
0
0
0
0
0
0
0
0
0
0
0
0
0
0
0
0
0
0
0
0
0
0
0
0
0
0
0
0
0
0
0
0
0
0
0
0
0
0
0
0
0
0
0
0
0
0
0
0
0
0
0
0
0
0
0
0
0
0
0
0
0
0
0
0
0
0
0
0
0
0
0
0
0
0
0
0
0
0
0
0
0
0
0
0
0
0
0
0
0
0
0
0
0
0
0
0
0
0
0
0
0
0
0
0
0
0
0
0
0
0
0
0
0
0
0
0
0
0
0
0
0
0
0
0
0
0
0
0
0
0
0
0
0
0
0
0
0
0
0
0
0
0
0
0
0
0
0
0
0
0
0
0
0
0
0
0
0
0
0
0
0
0
0
0
0
0
0
0
0
0
0
0
0
0
0
0
0
0
0
0
0
0
0
0
0
0
0
0
0
0
0
0
0
0
0
0
0
0
0
0
0
0
0
0
0
0
0
0
0
0
0
0
0
0
0
0
0
0
0
0
0
0
0
0
0
0
0
0
0
0
0
0
0
0
0
0
0
0
0
0
0
0
0
0
0
0
0
0
0
0
0
0
0
0
0
0
0

NodalMass_(kg) 1 343 double
3.15563e-06
1.41304e-05
2.20912e-06
1.71484e-05
8.42e-06
9.09306e-06
1.01179e-05
7.52198e-06
6.81096e-06
5.58223e-06
3.10888e-06
1.07575e-05
4.87011e-06
1.64955e-05
3.0246e-06
8.05984e-06
6.703e-06
1.0877e-05
4.18978e-06
8.16106e-06
6.14143e-06
1.17902e-05
2.23114e-06
4.25176e-06
1.09915e-05
7.41467e-06
4.21871e-06
3.92484e-06
3.08766e-06
1.31268e-05
7.72627e-06
1.65404e-05
1.19037e-05
7.97564e-06
3.81683e-06
1.11001e-05
3.81317e-06
1.39137e-05
6.37414e-06
8.00975e-06
7.6712e-06
1.21135e-05
1.6399e-05
2.78633e-06
8.93599e-06
2.58087e-06
7.57362e-06
4.23241e-06
1.31286e-05
3.80168e-06
2.7746e-06
7.16776e-06
1.21307e-05
5.11765e-06
8.19728e-06
4.58094e-06
2.79503e-06
3.26126e-06
4.12443e-06
2.11915e-06
3.35177e-06
3.61669e-06
1.56838e-05
7.33679e-06
8.24695e-06
5.00369e-06
2.82625e-06
7.20276e-06
3.26815e-06
4.18751e-06
2.02785e-06
2.42152e-06
3.11835e-06
5.97459e-06
5.87101e-06
4.09374e-06
5.45463e-06
2.28825e-06
4.49759e-06
4.38192e-06
4.50892e-06
4.39234e-06
4.27273e-06
5.32031e-06
1.53201e-06
2.38869e-06
2.02885e-06
4.38798e-06
3.17972e-06
3.14298e-06
4.61567e-06
5.87645e-06
8.18088e-06
2.48341e-06
1.53815e-05
3.49683e-06
7.35227e-06
2.01314e-06
2.0408e-06
7.98183e-06
4.41293e-06
7.1389e-06
1.20123e-06
5.03343e-06
1.61257e-06
4.12601e-06
8.73748e-06
4.37849e-06
7.97173e-06
2.13557e-06
3.38137e-06
9.48623e-06
7.40262e-06
1.80226e-06
2.10222e-06
7.98889e-06
1.87983e-06
7.44814e-06
4.19782e-06
2.37156e-06
4.31705e-06
6.06441e-06
4.30905e-06
2.16843e-06
1.8986e-06
1.81294e-06
3.89762e-06
2.44299e-06
1.65628e-06
8.01374e-06
1.64513e-06
2.3931e-06
3.01363e-06
2.99431e-06
1.36541e-06
1.87293e-06
2.09622e-06
1.94762e-06
1.87618e-06
6.37913e-06
4.58628e-06
2.02767e-06
1.61999e-06
2.41284e-06
3.8865e-06
4.44973e-06
2.29839e-06
1.17349e-05
3.11811e-06
1.354e-06
3.45063e-06
1.81846e-06
2.9382e-06
1.37381e-06
2.41464e-06
2.10451e-06
2.63927e-06
2.14166e-06
1.7943e-06
3.19976e-06
1.36989e-06
2.43489e-06
2.08158e-06
1.3601e-06
2.17203e-06
1.89924e-06
3.16996e-06
2.6119e-06
2.37677e-06
1.60225e-06
1.90684e-06
5.49206e-06
1.87878e-06
3.14313e-06
2.97301e-06
1.18454e-06
1.89263e-06
2.04166e-06
2.73572e-06
2.42405e-06
3.23083e-06
3.19752e-06
3.2142e-06
1.94492e-06
1.61196e-06
1.86876e-06
3.22435e-06
2.1114e-06
2.96917e-06
6.15288e-06
2.3097e-06
2.39729e-06
2.38029e-06
2.64508e-06
1.66557e-06
1.82377e-06
2.06583e-06
5.73271e-06
2.08467e-06
2.18324e-06
2.43522e-06
3.1188e-06
3.17316e-06
2.05447e-06
1.9592e-06
3.05718e-06
6.44327e-06
2.08796e-06
2.72615e-06
2.15709e-06
1.86812e-06
2.0028e-06
2.10999e-06
2.88994e-06
2.3222e-06
2.3979e-06
1.97629e-06
6.4127e-06
2.16225e-06
3.29198e-06
2.10223e-06
2.66566e-06
1.94415e-06
2.91865e-06
2.58116e-06
2.11703e-06
2.09534e-06
1.91719e-06
7.06046e-06
2.25203e-06
2.06378e-06
6.28159e-06
2.12147e-06
2.90924e-06
2.12921e-06
6.4487e-06
1.41701e-06
2.0682e-06
6.58062e-06
2.52584e-06
2.39732e-06
7.42191e-07
2.22368e-06
7.06751e-07
7.00657e-07
8.93749e-07
2.53536e-06
2.26535e-06
1.33607e-06
7.84725e-07
2.32303e-06
6.06694e-07
6.68276e-07
6.84307e-07
2.51242e-06
2.31629e-06
7.8367e-07
6.80839e-07
6.22692e-06
6.7471e-07
6.65305e-07
7.01158e-07
1.8232e-06
1.90695e-06
6.86722e-07
7.04792e-07
1.86445e-06
2.28572e-06
6.8045e-07
7.16005e-07
1.82373e-06
6.01079e-07
2.02791e-06
7.4579e-07
5.74423e-07
1.80052e-06
1.454e-06
2.2702e-06
1.80636e-06
2.15356e-06
1.79089e-06
1.79456e-06
6.8231e-07
2.24737e-06
1.45239e-06
1.79556e-06
6.97875e-07
6.24265e-07
6.62717e-07
1.44627e-06
1.40138e-06
2.15258e-06
1.82851e-06
1.3994e-06
1.43932e-06
2.19226e-06
6.97732e-07
1.77726e-06
1.79162e-06
6.54258e-07
7.3397e-07
2.34895e-06
7.10392e-07
6.56982e-07
6.26314e-07
2.18926e-06
6.12493e-07
6.03901e-07
5.92831e-07
5.12031e-07
5.11667e-07
4.9467e-07
4.97016e-07
4.96269e-07
5.33079e-07
4.94191e-07
4.97855e-07
4.86862e-07
4.90626e-07
4.94649e-07
4.94954e-07
4.91922e-07
4.89615e-07
4.96354e-07
4.95189e-07
4.82188e-07
1.10854e-06
5.3299e-07
5.44763e-07
5.36655e-07
5.15417e-07
5.01772e-07
5.53774e-07
5.53774e-07
5.53774e-07
5.53774e-07
5.53774e-07
5.53774e-07
5.50785e-07
5.50785e-07
7.45291e-07
7.11668e-07
4.9897e-07

NodalForce_(N) 3 343 double
-9.61007e-06 -4.15502e-07 3.54303e-07
-8.15111e-05 -3.30158e-06 1.87529e-06
0.000484592 -7.14288e-05 0.000419337
-8.83812e-05 -3.90961e-06 2.51311e-06
-0.000105775 -5.32498e-06 -3.16766e-06
-0.00010964 -5.50275e-06 -5.85509e-06
-0.000178207 -1.07066e-05 -1.40184e-05
-0.000114341 -6.08101e-06 -4.17628e-06
-0.000104337 -5.89006e-06 -9.86023e-06
-6.74596e-05 -3.29566e-06 -1.84608e-06
-2.73207e-05 -1.32015e-06 -2.23471e-06
-0.000126853 -6.25982e-06 -1.00586e-05
-4.56572e-05 -2.19623e-06 -2.78078e-06
-7.94605e-05 -3.0909e-06 1.81203e-06
-2.71697e-05 -1.24629e-06 -2.35221e-06
-0.000123585 -7.72085e-06 -1.24364e-05
-0.000100378 -5.76351e-06 -5.89872e-06
-6.2054e-05 -2.66505e-06 7.8899e-07
0.0015243 0.000435386 -4.28087e-06
-3.36731e-05 -1.41629e-06 8.38048e-07
-0.00010294 -5.59105e-06 -4.167e-06
-0.000211992 -1.2215e-05 -1.72162e-05
0.00230859 7.59711e-05 0.000795782
-4.74548e-05 -2.72527e-06 3.60416e-07
-0.000141843 -7.36216e-06 -1.80716e-06
-7.70225e-05 -3.40461e-06 -1.45315e-07
-1.47804e-05 -7.44922e-07 3.58919e-07
-4.31279e-05 -2.64318e-06 7.46344e-08
-2.21654e-05 -9.59294e-07 4.44269e-07
-6.76064e-05 -2.93338e-06 1.61796e-06
-8.23007e-05 -3.80264e-06 -3.29747e-07
-0.000277186 -2.04995e-05 -3.90622e-05
-0.000201725 -1.31869e-05 -2.74712e-05
-0.000147889 -1.02083e-05 -1.5755e-05
-8.32591e-05 -7.34014e-06 -8.88105e-06
-0.000191885 -1.31609e-05 -1.48706e-05
-7.31808e-05 -6.93648e-06 -6.45056e-06
-0.000266489 -1.92541e-05 -1.43733e-05
-5.35816e-05 -2.48897e-06 -9.73569e-07
-7.90005e-05 -3.78936e-06 -5.50577e-06
-7.26468e-05 -3.51359e-06 -8.73285e-07
-0.000134509 -7.24762e-06 -1.01156e-05
-7.79393e-05 -2.69432e-06 9.65714e-07
-1.84659e-05 -1.11608e-06 -9.19729e-08
-8.36707e-05 -4.41471e-06 -1.46157e-06
0.00100395 -0.000359497 -0.000154583
-3.21204e-05 -1.26464e-06 8.21111e-07
0.000361775 0.000180348 -0.000805003
-7.2879e-05 -3.32575e-06 6.66428e-07
-1.25145e-05 -5.5081e-07 3.20155e-07
-3.98394e-05 -2.70751e-06 -6.32266e-06
-9.39243e-05 -5.44885e-06 -1.05619e-05
-6.32646e-05 -2.61041e-06 1.27053e-06
-3.78089e-05 -1.5906e-06 2.95854e-08
-3.22485e-05 -1.38168e-06 6.83599e-07
-9.31488e-05 -7.17718e-06 -1.56005e-05
0.00106275 -0.000532994 -0.00011902
-1.41026e-05 -5.77268e-07 4.25508e-07
0.00252388 -0.000765949 0.00108764
-4.39414e-05 -3.6489e-06 -6.64034e-06
-2.0084e-05 -8.95177e-07 -9.19716e-07
-8.09296e-05 -5.26611e-06 -8.18285e-06
-0.000310204 -1.83658e-05 -1.40358e-05
-0.000143565 -8.76923e-06 -1.10311e-05
-7.78237e-05 -3.88602e-06 -1.87313e-09
-1.88449e-05 -8.64573e-07 4.33588e-07
-1.91718e-05 -8.94247e-07 9.54379e-08
-9.51098e-05 -5.23054e-06 -1.03072e-05
-7.19227e-05 -6.00236e-06 -7.55646e-06
-8.34315e-05 -4.85683e-06 -6.5096e-06
-1.83498e-05 -9.0519e-07 2.7799e-07
-1.37441e-05 -5.74386e-07 -5.70594e-07
-2.29378e-05 -1.28323e-06 2.86976e-07
-6.47117e-05 -3.27485e-06 -4.36014e-06
-4.77107e-05 -2.086e-06 2.83459e-07
0.00162008 -0.000665854 -0.000749705
-6.63333e-05 -3.18758e-06 -1.16545e-06
-9.57675e-06 -4.0809e-07 3.01054e-07
-5.2229e-05 -3.21467e-06 -7.2979e-06
-5.4677e-05 -4.24177e-06 -6.76531e-06
-4.11978e-05 -2.78851e-06 -3.06308e-06
-3.62281e-05 -1.87504e-06 -3.42665e-06
-9.04347e-05 -7.84507e-06 -1.18449e-05
-4.29978e-05 -1.87208e-06 2.9177e-07
0.00161838 0.000536636 0.000152353
-8.93662e-06 -3.77947e-07 3.13418e-07
0.0014398 -0.000162085 -0.000387664
0.00147036 -0.000189705 -0.000517179
0.00136579 0.000512395 -0.000445021
-2.1779e-05 -9.56255e-07 4.74473e-07
-1.4951e-05 -6.22138e-07 3.44764e-07
-7.03123e-05 -3.71791e-06 -3.71914e-06
-6.59806e-05 -2.98638e-06 -3.3811e-06
-3.52528e-05 -1.85095e-06 -4.96356e-06
-0.000264207 -1.46033e-05 -3.44957e-05
-5.98358e-05 -3.57789e-06 -2.22823e-06
-0.000109165 -5.90598e-06 -3.30502e-06
-4.5577e-05 -2.98276e-06 -4.15953e-06
0.00222104 0.000858708 -3.25565e-06
-0.000113907 -7.32645e-06 -9.0903e-06
-6.73431e-05 -3.98249e-06 -6.29658e-07
-0.000109603 -5.64311e-06 -2.51022e-06
-9.10814e-06 -5.31495e-07 -7.11848e-08
-9.30564e-05 -8.81662e-06 -1.04544e-05
-1.12572e-05 -5.92692e-07 2.47956e-07
-6.31115e-05 -3.74672e-06 -1.06088e-06
-0.000131707 -8.44716e-06 -5.29367e-06
-8.41112e-05 -4.76904e-06 -8.58528e-06
-0.000113632 -5.98485e-06 -8.17034e-06
-6.93003e-06 -2.95211e-07 1.76411e-07
-6.07369e-05 -3.95044e-06 -2.13851e-06
-0.000124263 -6.92342e-06 -2.1812e-06
-0.000111576 -5.92029e-06 -2.74635e-06
0.000870143 0.000566231 -0.000168868
-4.83648e-05 -3.18205e-06 -3.91865e-06
-3.49915e-05 -1.50471e-06 6.76199e-07
-4.22246e-05 -3.61711e-06 -3.78521e-06
-0.000144162 -9.55103e-06 -1.14696e-05
-6.23985e-05 -4.8323e-06 -1.97316e-06
-3.69706e-05 -1.97061e-06 -3.39742e-06
-9.35907e-05 -6.02192e-06 -1.17832e-05
-0.000113065 -7.01617e-06 -1.23134e-05
-1.6217e-05 -7.65608e-07 4.3678e-07
0.00151425 -6.80502e-05 0.000397477
-6.29787e-06 -2.55818e-07 2.51375e-07
-3.87532e-05 -3.18648e-06 -4.94767e-06
-5.86023e-05 -3.87888e-06 -1.23191e-06
0.00219296 0.000379269 -0.000904926
-5.10706e-06 -1.22681e-07 6.24334e-08
-8.49441e-05 -4.61764e-06 -4.24178e-07
-2.92704e-05 -2.79857e-06 -4.24751e-06
-4.87467e-05 -4.35021e-06 -7.85434e-06
-3.58276e-05 -1.80768e-06 -4.28472e-06
-4.40811e-05 -2.56956e-06 -6.61247e-06
0.00198254 0.000359479 0.000424716
-6.21805e-06 -3.28435e-07 2.00868e-07
0.0018695 -0.000330545 0.000653802
-4.01768e-05 -2.45944e-06 -2.24294e-06
-4.24979e-05 -3.4848e-06 -3.7183e-06
-0.000128858 -8.82856e-06 -7.62264e-06
-7.78406e-05 -5.49137e-06 -1.34773e-05
-3.09526e-05 -1.68425e-06 -4.5997e-06
-2.99964e-05 -1.65563e-06 -3.80847e-06
-5.05105e-05 -3.15727e-06 -7.49788e-06
0.00155833 0.000396003 -0.000884294
-5.75723e-05 -2.82513e-06 -5.74511e-06
-2.46409e-05 -1.37452e-06 -3.71615e-08
-0.000227108 -1.35965e-05 -1.09354e-05
-7.13329e-05 -4.70333e-06 -5.8159e-06
-1.31127e-05 -9.0465e-07 -5.42814e-07
-2.48912e-05 -1.44087e-06 1.9779e-07
-6.36562e-06 -3.34748e-07 2.33116e-07
0.00272394 0.000590426 0.000205729
-2.89458e-05 -2.15448e-06 -4.10225e-06
-3.97367e-05 -3.34657e-06 -1.98367e-06
-3.1262e-05 -2.28102e-06 -5.26613e-06
0.00153929 0.000226867 -0.00080098
0.00237715 0.000428945 0.00121565
-2.48582e-05 -1.50405e-06 -3.74892e-06
-6.7555e-05 -4.45567e-06 -9.74945e-06
-1.36211e-05 -6.75698e-07 -3.95739e-07
-1.34779e-05 -8.82259e-07 -3.28533e-07
-3.96322e-05 -2.48628e-06 -1.14246e-06
-1.59326e-05 -9.2519e-07 -2.16853e-06
-4.35002e-05 -3.6617e-06 -7.61336e-06
-3.22331e-05 -2.42798e-06 -5.81576e-06
-5.63222e-05 -3.19061e-06 -1.4739e-06
-2.37716e-05 -1.04753e-06 2.52761e-07
-4.45296e-05 -3.37e-06 -1.94405e-06
-2.90093e-05 -2.58126e-06 -1.51309e-06
-2.86681e-05 -1.59446e-06 -5.70349e-07
-9.25727e-05 -5.60402e-06 -4.12818e-06
-3.5307e-05 -2.216e-06 -1.15772e-06
-1.8975e-05 -7.05198e-07 -1.0397e-06
-2.65339e-05 -1.19952e-06 -2.73634e-06
-1.06515e-05 -4.59049e-07 -1.04362e-06
-2.90094e-05 -2.5818e-06 -4.41707e-06
-1.15609e-05 -4.60958e-07 -3.48791e-08
-6.15431e-05 -4.29568e-06 -5.669e-06
0.00212821 0.000321902 0.00058249
-6.57911e-05 -4.52049e-06 -1.09162e-05
-6.75246e-05 -4.1638e-06 -2.89105e-06
-7.49905e-05 -4.92161e-06 -5.18191e-06
0.00164473 -9.60587e-05 -0.000491236
-8.24069e-06 -3.56221e-07 -4.43213e-07
-2.98038e-05 -1.5703e-06 -3.8377e-06
-5.51388e-05 -3.18955e-06 -9.11055e-06
-3.73034e-05 -2.41543e-06 -6.48055e-06
-3.83868e-05 -2.89344e-06 -2.33587e-06
-7.60348e-05 -4.19683e-06 -2.61964e-06
-3.09908e-05 -2.32637e-06 -1.13534e-06
-3.59916e-05 -3.04804e-06 -3.82478e-06
-1.50396e-05 -6.54835e-07 -1.02886e-06
-2.9526e-05 -1.34609e-06 2.17939e-08
-1.19586e-05 -6.25662e-07 1.48213e-07
-1.41537e-05 -7.17402e-07 7.46505e-08
-4.83123e-05 -3.22839e-06 -3.26577e-06
-5.42765e-05 -2.8941e-06 -1.44129e-07
-4.63686e-05 -3.15779e-06 -4.84868e-06
-3.73548e-05 -2.1584e-06 -9.9547e-07
-4.83865e-05 -4.59282e-06 -3.49762e-06
0.00206322 -0.000449831 -0.00032924
-1.09349e-05 -4.55096e-07 2.6273e-07
0.00174789 -0.000887028 0.000196296
-2.17493e-05 -1.32692e-06 -1.52354e-07
-3.28852e-05 -2.19099e-06 -3.61262e-07
-8.22003e-05 -3.93381e-06 -1.0805e-06
-3.83954e-05 -2.21873e-06 -1.18529e-06
-3.77421e-05 -2.11191e-06 -9.5507e-07
-2.87523e-05 -1.55354e-06 -1.43277e-06
-6.42318e-06 -2.65804e-07 2.0414e-07
-4.27238e-05 -2.70334e-06 -1.70897e-06
-4.4097e-05 -3.14197e-06 -6.63454e-06
-4.63348e-05 -4.00421e-06 -3.51957e-06
-2.74301e-05 -1.37089e-06 -3.35357e-06
-1.58329e-05 -9.12179e-07 4.09471e-07
-4.03227e-05 -2.57313e-06 -6.60602e-06
-3.85897e-05 -1.68907e-06 4.20559e-07
-3.28883e-05 -1.67824e-06 -5.82722e-07
-6.79425e-05 -4.64435e-06 -3.13737e-06
-2.53439e-05 -1.86969e-06 -1.99839e-06
-5.73819e-05 -3.99599e-06 -7.3773e-06
-2.58306e-05 -1.91026e-06 -6.62834e-07
-4.86776e-05 -2.75595e-06 -3.15969e-06
-1.82114e-05 -1.04716e-06 1.84743e-07
0.00219403 0.000210052 0.000661986
-1.93872e-05 -1.00401e-06 -2.11348e-06
-2.38092e-05 -1.2233e-06 -1.59076e-06
-6.47378e-05 -2.85015e-06 1.61118e-07
-2.29846e-05 -1.5871e-06 -4.29903e-07
-2.16266e-05 -1.11851e-06 -1.65965e-07
-5.57601e-05 -2.54856e-06 -6.21627e-07
0.00259779 -0.000752728 1.35864e-05
0.00230874 0.000479052 -0.00108113
-2.81115e-05 -1.42658e-06 -2.96423e-07
-7.99983e-05 -3.89281e-06 -1.25766e-06
-1.93528e-05 -1.13295e-06 -3.06375e-07
-4.51159e-05 -3.17777e-06 -5.26341e-06
-6.0369e-05 -2.71976e-06 -4.74471e-08
-2.96926e-05 -1.54255e-06 -3.83598e-06
-5.54834e-05 -3.93078e-06 -4.06105e-06
0.000827922 0.000400334 -0.000128214
-4.67052e-05 -3.44217e-06 -2.43619e-06
-6.3872e-06 -3.62809e-07 9.58918e-08
0.00071881 0.000218676 -0.000733376
-8.90894e-06 -6.83501e-07 -1.10654e-06
0.00246343 -0.000840853 0.00014391
-5.22013e-05 -4.37286e-06 -3.82884e-06
-3.15046e-05 -2.39746e-06 -2.10762e-06
0.000722721 -0.000734989 0.000273512
-3.0741e-05 -1.6159e-06 -1.54817e-07
0.000935098 0.000937469 2.18989e-06
-1.51772e-05 -9.16836e-07 -1.33586e-06
-1.40295e-05 -1.50106e-06 -2.10641e-06
-2.80779e-05 -1.42529e-06 -1.18223e-07
-5.08811e-05 -3.29078e-06 -5.88674e-06
-1.03986e-05 -6.18159e-07 -1.58285e-08
0.000922722 7.37722e-05 0.00054426
-5.83574e-05 -2.63009e-06 -3.56842e-07
-7.01686e-06 -3.79319e-07 -7.38047e-07
-1.41801e-05 -8.21906e-07 -1.91735e-06
0.00061141 -0.000413551 0.000746741
-3.76215e-05 -3.66592e-06 -2.45945e-06
-4.3729e-05 -3.93686e-06 -3.31737e-06
-1.51325e-05 -8.99103e-07 -1.69636e-06
-1.66858e-05 -1.18591e-06 -1.04584e-06
-6.18156e-06 -2.91957e-07 2.1234e-07
0.001398 0.000498545 0.000204991
0.000692225 -0.000691313 0.000313828
0.000513426 -0.00077549 0.000386103
-3.85966e-05 -3.31e-06 -2.19498e-06
-1.31737e-05 -1.39809e-06 -1.33042e-06
-2.12359e-05 -1.43262e-06 -1.41211e-07
-1.44892e-05 -1.18034e-06 -2.84028e-06
0.000835358 0.000344094 2.76183e-05
0.000714682 0.000125995 -0.00049328
-4.20081e-06 -1.73034e-07 7.71158e-08
-6.42648e-06 -2.617e-07 1.74371e-07
-3.16876e-05 -3.08061e-06 -5.47592e-06