# vtk DataFile Version 4.2
vtk output
ASCII
DATASET UNSTRUCTURED_GRID

POINTS 343 double
0.00161148 0.00421627 -2.06427e-05
0.00311674 0.00502408 0.00213516
0 0.00419538 0.00112517
0.00277456 0.0019912 0.00190652
0.00744732 0.00251184 0.00493853
0.00744419 0.00393269 0.00630297
0.010975 0.00493015 0.00486112
0.00896094 0.00497542 0.00357987
0.0098471 0.00342794 0.00678868
0.00717988 0.005091 0.0049092
0.00602144 0.00120267 0.00992035
0.00760726 0.00218748 0.00780623
0.00604094 7.83619e-05 0.00824012
0.00289076 0.00204022 0.00799661
0.00616892 0.00261779 0.00991803
0.0100055 0.00658519 0.00681907
0.00922635 0.00631012 0.00506692
0.00324959 0.00222778 0.00510471
0 0.00143586 0.00417514
0.00228974 0.0034962 0.00400768
0.00985198 0.00333416 0.00303957
0.0111651 0.00237522 0.00492369
0 0.00270918 0.00154168
0.00599655 0.0015142 -7.23804e-05
0.00721824 0.00229027 0.00210814
0.00570445 0.00360552 0.00153233
0.00193532 2.44133e-05 0.00403549
0.0060364 7.88973e-05 0.00161295
0.00377219 0.0070024 -4.62592e-05
0.00277769 0.00808954 0.0019088
0.00587721 0.00632779 0.0015719
0.0115067 0.00814391 0.0078482
0.0114665 0.00497773 0.00787382
0.0120684 0.00624953 0.00579431
0.0143694 0.00902037 0.00401462
0.0108962 0.00778624 0.00482662
0.0123127 0.0101506 0.00401326
0.0114744 0.00813042 0.0018752
0.00508619 0.00310516 0.00689524
0.00638386 0.00374868 0.00824105
0.00560627 0.00167893 0.00589829
0.0071896 0.0077652 0.00758408
0.00285103 0.0080455 0.00795338
0.00405182 0.0100503 0.00707523
0.0056214 0.00847452 0.005886
0 0.00695361 0.00262895
0.00236161 0.00627051 0.00405753
0 0.0040177 0.00850214
0.00332199 0.00502923 0.00761931
0.00205578 0.00420085 0.00997384
0.0103158 0.00725926 0.00986238
0.00879796 0.00609129 0.00830304
0.00294145 0.00798036 0.00470395
0.00436907 0.00700148 0.00641247
0.00227618 0.00610835 0.0058968
0.014366 0.00598643 0.00812446
0 0.00718191 0.00711644
0.00227331 0.00580401 -2.89162e-05
0 0.00577432 0.00158701
0.0143668 0.00735724 0.0069276
0.00412074 0.00340376 0.0099452
0.0143643 0.00162498 0.0039973
0.0115902 0.00211242 0.001838
0.0120849 0.00367575 0.00384801
0.00536743 0.00172317 0.00406021
0.0021601 0.0100277 0.00578709
0.00404892 5.27016e-05 0.00707689
0.00879382 0.0042934 0.00826158
0.0143659 0.00745139 0.00401743
0.0123063 0.000158383 0.00401473
0.00481222 0.00293629 -5.83513e-05
0.00388408 0.00159128 0.00994859
0.00406388 5.3139e-05 0.0027805
0.00689911 0.00528785 0.00746525
0.0045432 0.00320775 0.00310912
0 0.00849157 0.00581511
0.00700403 0.00376671 0.0036979
0.00220881 0.00273783 -2.80004e-05
0.00833039 0.00842813 0.00988855
0.00859174 0.0101052 0.00839331
0.00604494 0.0100747 0.00823891
0.00576593 0.00857518 0.00992273
0.0143676 0.00866253 0.00562968
0.00451996 0.00689457 0.00309228
0 0.00748929 0.00137438
0.001968 0.00751499 -2.51702e-05
0 0.00287343 0.00335182
0 0.00580816 0.00831736
0 0.00429792 0.00253898
0.00364273 0.00434531 -4.46476e-05
0.00205531 0.00584568 0.00997375
0.00743905 0.00656988 0.00630511
0.00517462 0.0065781 0.00816669
0.00998724 0.00275513 0.00986711
0.0115318 0.0021066 0.00788531
0.0100191 0.000129844 0.00295799
0.00865177 0.00177671 0.00350497
0.0143644 0.00305861 0.00317555
0 0.00140616 0.00256446
0.00915895 0.0083415 0.00630365
0.00836372 0.00154484 -0.000100327
0.00867708 0.00366383 0.00149694
0.00452656 0.0100561 0.00576642
0.012304 0.0101507 0.00567517
0.00367976 0.00145427 -4.49938e-05
0.00858947 0.000111972 0.00138881
0.00902745 0.00840022 0.00350364
0.0122983 0.000158295 0.00567654
0.0089179 0.00178834 0.00625177
0.00201278 0.00258962 0.00997427
0.0102338 0.00730968 -0.000123719
0.00742479 0.00778362 0.00207587
0.00854288 0.00620173 0.00149678
0 0.00686719 0.00578184
0.0143669 0.00159596 0.00239123
0.00254433 0.00364306 0.0063754
0.0143706 0.00865755 0.00244833
0.0120914 0.00634027 0.00398178
0.00859536 0.010106 0.00138704
0.0100158 0.000129591 0.00679882
0.0143638 0.00162416 0.00563519
0.0120687 0.00372681 0.0059065
0.00215983 2.72499e-05 0.0057879
0 0.0013659 0.00748679
0.00196024 2.48123e-05 0.0075045
0.0143654 0.0070439 0.00559587
0.00836141 0.00859617 -0.000101841
0 0.0075208 0.00859127
0.00195557 0.00751156 0.00997504
0.00607598 0.00828201 0.00355035
0.0123527 0.0101499 0.00735067
0.0143702 0.00880053 0.00733542
0.00829307 0.00169391 0.00988979
0.0104316 0.00431995 0.00986078
0 0.0057735 0.00666667
0.00196096 0.0100251 0.00750355
0 0.00863025 0.00752641
0.012347 0.000160435 0.00235591
0.0143671 0.00713136 0.00245415
0.012162 0.00649361 0.00201436
0.0122326 0.00597629 0.00983755
0.0107631 0.00151307 0.00985719
0.0123468 0.000160034 0.00735266
0.0143658 0.0015546 0.00729747
0 0.00143551 0.00581971
0.00858555 0.000111375 0.00839448
0.00604966 7.88562e-05 0.0033239
0.0114078 0.00485261 0.00189542
0.0143653 0.00448033 0.0023658
0.00606975 0.0100749 0.006588
0.00406562 0.0100502 0.00277907
0.00188039 2.39739e-05 0.00239426
0 0.00727418 0.00419576
0.0143646 0.00595232 0.00647857
0.0100253 0.010123 0.00295598
0.0107914 0.00876855 0.00985582
0 0.00574334 0.00336387
0 0.0043297 0.00416652
0.00987074 0.0059075 0.0098684
0.0143633 0.00320672 0.00672844
0.00606525 7.89499e-05 0.00658972
0.00355251 0.010044 0.00856518
0.010764 0.00150644 -0.000128584
0.00829422 0.00677032 0.00988921
0.0143697 0.00769504 0.00839669
0.0123768 0.00770501 0.00983499
0.0099412 0.0031508 -0.000118948
0.0048296 0.00580595 -5.87736e-05
0.0108264 0.00876446 -0.000130356
0.0108086 0.0101323 0.00125462
0.00831203 0.00697191 -0.000100796
0.0100262 0.00649716 0.00290856
0.0108027 0.000141298 0.00125582
0.00413657 0.00505104 0.00994513
0.00621616 0.00591174 0.00991697
0.00621491 0.00424501 0.00991716
0.0108062 0.0101309 0.00847392
0.00354976 4.59262e-05 0.00856651
0.0143651 0.00592305 0.00318765
0 0.00302218 0.00691532
0.0143654 0.00420078 0.00830806
0.0122265 0.00417439 -0.000145292
0.014368 0.00289492 0.0013735
0 0.00244495 0.00857025
0.00350634 0.00861418 0.0099535
0.0107998 0.000140542 0.00847546
0.0122008 0.00277953 0.00983793
0.0127229 0.00435491 0.00983032
0.00814804 0.0101001 0.00572865
0.00745048 0.00767708 0.00493749
0.00810894 0.0100995 0.00411177
0.0100217 0.0101228 0.00679734
0.00433559 0.00697042 0.00994234
0.0059848 0.00440739 -7.22438e-05
0.00406734 5.27567e-05 0.00435339
0.00452334 5.89632e-05 0.00576863
0.0143691 0.00437855 0.000958054
0.00522392 0.00840363 0.00152244
0.0143637 0.00451147 0.00398759
0.00958497 0.00589446 -0.000115803
0.012353 0.0101508 0.00235442
0 0.00848692 0.00262374
0.00193537 0.0100251 0.00403468
0 0.00885053 0.00419359
0.00602588 0.00892611 -7.37975e-05
0.0060402 0.0100745 0.00161161
0.00718177 0.00488378 0.00228963
0.0103799 0.00465415 -0.000124357
0.00810294 0.000105257 0.0041143
0.00814248 0.000105809 0.00573067
0.00188008 0.0100241 0.0023933
0.012324 0.00260487 -0.000146757
0.0143635 0.00470349 0.00703068
0.0102281 0.0101255 0.00486988
0.0082489 0.0034689 0.00988997
0.00352623 4.63234e-05 0.00131227
0.0143667 0.00263144 0.00837587
0.00343446 0.00483526 0.00495603
0.00838401 0.00443791 -0.000100701
0.0119622 0.0059579 -0.000142235
0.00787248 0.0100967 0.00711825
0.0143627 0.00451179 0.00564907
0.0077649 0.0100955 0.00267764
0.0102222 0.000132173 0.00487154
0.00406926 0.0100504 0.00435134
0 0.00452174 0.00721958
0.00649175 0.00730124 0.00991314
0.0078669 0.000102214 0.00711943
0.00517192 0.00514048 0.00353028
0.00610591 0.010075 0.00492938
0.00610133 7.96818e-05 0.00493196
0.00526822 0.00528408 0.00610762
0 0.005744 0.00499998
0 0.00433013 0.00583333
0.00718522 0.00583603 -8.68473e-05
0.00716108 0.0064303 0.00346319
0.00775918 0.000100947 0.00267954
0.014364 0.00592238 0.00481777
0.0052973 0.00647592 0.00477626
0.0082505 0.00510375 0.00988985
0.0143688 0.00595312 0.00141808
0 0.00666667 0
0.0123577 0.00767345 -0.00014711
0.00478555 6.32415e-05 -5.80128e-05
0 0.01 0.00666667
0.00718385 0.0100875 0.00990417
0 0.00288419 0.00499914
0.0143711 0.00766481 0.00120562
0.0143743 0.00684328 -0.000166299
0 0.005 0.01
0.00718266 0.00297758 -8.63668e-05
0 0.005 0
0.0143706 0.000193335 0.00315805
0.0143769 0.0101656 0.00647765
0.00602801 0.0073508 -7.34213e-05
0.0143633 0.00306955 0.00481768
0.00718382 9.48562e-05 -8.6838e-05
0 0 0.00666667
0.00545209 0.00368665 0.00515703
0.00717893 9.31e-05 0.00990539
0.0143696 0.00019278 0.00647987
0 0 0.005
0.0126311 0.010153 0.00106811
0.0143755 0.00895036 0.00105192
0.0143693 0.000192741 0.00481841
0.0143735 0.00518143 -0.000165132
0.00174763 0.00124259 -2.21514e-05
0 0.00122008 0.00122008
0 0.00333333 0.01
0 0.00666667 0.01
0.0126308 0.00893384 -0.000150356
0.0143774 0.0101652 0.00315555
0.00605372 0.0100745 0.00332171
0.0143742 0.00684275 0.00980045
0 0.00333333 0
0 0.00122008 0.00877992
0.00174616 2.21375e-05 0.00875822
0.00174598 0.00124212 0.00997768
0.0126281 0.0101516 0.00861187
0.0017468 0.00880206 0.00997756
0 0.00877992 0.00877992
0.0143736 0.00894904 0.00858501
0.00958948 0.0101173 -0.000117264
0.014371 0.00141121 0.00105199
0.00174716 0.0100221 0.00875752
0.0126277 0.00893181 0.00983068
0.014373 0.00518002 0.00980106
0 0 0.00333333
0.00958296 0.000126095 -0.00011533
0.0126245 0.000165907 0.00106852
0.00173541 2.23217e-05 0.00118972
0 0.00877992 0.00122008
0.00174671 0.00880266 -2.24183e-05
0.00173488 0.0100221 0.00118885
0.0143691 0.00140971 0.00858581
0.0126232 0.00138442 0.00983182
0.00957773 0.000124444 0.00987339
0.0126263 0.00138625 -0.000149867
0.012622 0.000164725 0.00861355
0.0143736 0.00351888 -0.000164827
0.0047849 0.0100584 0.00993612
0.00352724 0.0100437 0.00131114
0.00958427 0.0101161 0.00987226
0.014372 0.00351682 0.00980091
0 0.01 0.005
0.00376513 0.00853493 -4.64823e-05
0.0143763 0.0101653 0.00481796
0 0.01 0.00333333
0 0.00166667 0
0.0143736 0.00019322 0.00149691
0 0.00166667 0.01
0 0.00833333 0
0.0143783 0.00850612 -0.000166897
0.0143718 0.000192426 0.00814171
0.0143807 0.0101671 0.0014967
0.0143789 0.0101658 0.00813993
0.00238864 0.0100293 0.00996885
0 0.01 0.00833333
0.0119915 0.0101451 -0.000144147
0.0119847 0.000158577 -0.000143279
0.0119811 0.000156696 0.00984128
0.0119874 0.0101434 0.00983994
0 0 0.00833333
0.0143773 0.00850316 0.00980139
0.00238915 3.16283e-05 -2.98282e-05
0 0 0.00166667
0.0047878 0.0100593 -5.90721e-05
0.0143732 0.00185578 0.00980217
0.0143753 0.00185784 -0.000165649
0.00238656 3.06723e-05 0.00996951
0.00238887 0.0100299 -3.03754e-05
0 0.01 0.00166667
0.0143826 0.0101676 0.00980277
0 0 0.01
0.014385 0.010168 -0.000168191
0.014376 0.000191247 0.00980478
0 0.01 0.01
0.0143786 0.000192987 -0.000167245
0 0.01 0
0 0 0
0.00718841 0.0100883 -8.84791e-05
0.00478151 6.19183e-05 0.00993693
0 0.00833333 0.01

CELLS 343 686
1 0
1 1
1 2
1 3
1 4
1 5
1 6
1 7
1 8
1 9
1 10
1 11
1 12
1 13
1 14
1 15
1 16
1 17
1 18
1 19
1 20
1 21
1 22
1 23
1 24
1 25
1 26
1 27
1 28
1 29
1 30
1 31
1 32
1 33
1 34
1 35
1 36
1 37
1 38
1 39
1 40
1 41
1 42
1 43
1 44
1 45
1 46
1 47
1 48
1 49
1 50
1 51
1 52
1 53
1 54
1 55
1 56
1 57
1 58
1 59
1 60
1 61
1 62
1 63
1 64
1 65
1 66
1 67
1 68
1 69
1 70
1 71
1 72
1 73
1 74
1 75
1 76
1 77
1 78
1 79
1 80
1 81
1 82
1 83
1 84
1 85
1 86
1 87
1 88
1 89
1 90
1 91
1 92
1 93
1 94
1 95
1 96
1 97
1 98
1 99
1 100
1 101
1 102
1 103
1 104
1 105
1 106
1 107
1 108
1 109
1 110
1 111
1 112
1 113
1 114
1 115
1 116
1 117
1 118
1 119
1 120
1 121
1 122
1 123
1 124
1 125
1 126
1 127
1 128
1 129
1 130
1 131
1 132
1 133
1 134
1 135
1 136
1 137
1 138
1 139
1 140
1 141
1 142
1 143
1 144
1 145
1 146
1 147
1 148
1 149
1 150
1 151
1 152
1 153
1 154
1 155
1 156
1 157
1 158
1 159
1 160
1 161
1 162
1 163
1 164
1 165
1 166
1 167
1 168
1 169
1 170
1 171
1 172
1 173
1 174
1 175
1 176
1 177
1 178
1 179
1 180
1 181
1 182
1 183
1 184
1 185
1 186
1 187
1 188
1 189
1 190
1 191
1 192
1 193
1 194
1 195
1 196
1 197
1 198
1 199
1 200
1 201
1 202
1 203
1 204
1 205
1 206
1 207
1 208
1 209
1 210
1 211
1 212
1 213
1 214
1 215
1 216
1 217
1 218
1 219
1 220
1 221
1 222
1 223
1 224
1 225
1 226
1 227
1 228
1 229
1 230
1 231
1 232
1 233
1 234
1 235
1 236
1 237
1 238
1 239
1 240
1 241
1 242
1 243
1 244
1 245
1 246
1 247
1 248
1 249
1 250
1 251
1 252
1 253
1 254
1 255
1 256
1 257
1 258
1 259
1 260
1 261
1 262
1 263
1 264
1 265
1 266
1 267
1 268
1 269
1 270
1 271
1 272
1 273
1 274
1 275
1 276
1 277
1 278
1 279
1 280
1 281
1 282
1 283
1 284
1 285
1 286
1 287
1 288
1 289
1 290
1 291
1 292
1 293
1 294
1 295
1 296
1 297
1 298
1 299
1 300
1 301
1 302
1 303
1 304
1 305
1 306
1 307
1 308
1 309
1 310
1 311
1 312
1 313
1 314
1 315
1 316
1 317
1 318
1 319
1 320
1 321
1 322
1 323
1 324
1 325
1 326
1 327
1 328
1 329
1 330
1 331
1 332
1 333
1 334
1 335
1 336
1 337
1 338
1 339
1 340
1 341
1 342

CELL_TYPES 343
1
1
1
1
1
1
1
1
1
1
1
1
1
1
1
1
1
1
1
1
1
1
1
1
1
1
1
1
1
1
1
1
1
1
1
1
1
1
1
1
1
1
1
1
1
1
1
1
1
1
1
1
1
1
1
1
1
1
1
1
1
1
1
1
1
1
1
1
1
1
1
1
1
1
1
1
1
1
1
1
1
1
1
1
1
1
1
1
1
1
1
1
1
1
1
1
1
1
1
1
1
1
1
1
1
1
1
1
1
1
1
1
1
1
1
1
1
1
1
1
1
1
1
1
1
1
1
1
1
1
1
1
1
1
1
1
1
1
1
1
1
1
1
1
1
1
1
1
1
1
1
1
1
1
1
1
1
1
1
1
1
1
1
1
1
1
1
1
1
1
1
1
1
1
1
1
1
1
1
1
1
1
1
1
1
1
1
1
1
1
1
1
1
1
1
1
1
1
1
1
1
1
1
1
1
1
1
1
1
1
1
1
1
1
1
1
1
1
1
1
1
1
1
1
1
1
1
1
1
1
1
1
1
1
1
1
1
1
1
1
1
1
1
1
1
1
1
1
1
1
1
1
1
1
1
1
1
1
1
1
1
1
1
1
1
1
1
1
1
1
1
1
1
1
1
1
1
1
1
1
1
1
1
1
1
1
1
1
1
1
1
1
1
1
1
1
1
1
1
1
1
1
1
1
1
1
1
1
1
1
1
1
1
1
1
1
1
1
1
1
1
1
1
1
1
1
1
1
1
1
1
1
1
1
1
1
1
1
1
1
1
1
1

POINT_DATA 343
FIELD FieldData 8

NodeID_(#) 1 343 int
0
1
2
3
4
5
6
7
8
9
10
11
12
13
14
15
16
17
18
19
20
21
22
23
24
25
26
27
28
29
30
31
32
33
34
35
36
37
38
39
40
41
42
43
44
45
46
47
48
49
50
51
52
53
54
55
56
57
58
59
60
61
62
63
64
65
66
67
68
69
70
71
72
73
74
75
76
77
78
79
80
81
82
83
84
85
86
87
88
89
90
91
92
93
94
95
96
97
98
99
100
101
102
103
104
105
106
107
108
109
110
111
112
113
114
115
116
117
118
119
120
121
122
123
124
125
126
127
128
129
130
131
132
133
134
135
136
137
138
139
140
141
142
143
144
145
146
147
148
149
150
151
152
153
154
155
156
157
158
159
160
161
162
163
164
165
166
167
168
169
170
171
172
173
174
175
176
177
178
179
180
181
182
183
184
185
186
187
188
189
190
191
192
193
194
195
196
197
198
199
200
201
202
203
204
205
206
207
208
209
210
211
212
213
214
215
216
217
218
219
220
221
222
223
224
225
226
227
228
229
230
231
232
233
234
235
236
237
238
239
240
241
242
243
244
245
246
247
248
249
250
251
252
253
254
255
256
257
258
259
260
261
262
263
264
265
266
267
268
269
270
271
272
273
274
275
276
277
278
279
280
281
282
283
284
285
286
287
288
289
290
291
292
293
294
295
296
297
298
299
300
301
302
303
304
305
306
307
308
309
310
311
312
313
314
315
316
317
318
319
320
321
322
323
324
325
326
327
328
329
330
331
332
333
334
335
336
337
338
339
340
341
342

Component_(#) 1 343 int
0
0
0
0
0
0
0
0
0
0
0
0
0
0
0
0
0
0
0
0
0
0
0
0
0
0
0
0
0
0
0
0
0
0
0
0
0
0
0
0
0
0
0
0
0
0
0
0
0
0
0
0
0
0
0
0
0
0
0
0
0
0
0
0
0
0
0
0
0
0
0
0
0
0
0
0
0
0
0
0
0
0
0
0
0
0
0
0
0
0
0
0
0
0
0
0
0
0
0
0
0
0
0
0
0
0
0
0
0
0
0
0
0
0
0
0
0
0
0
0
0
0
0
0
0
0
0
0
0
0
0
0
0
0
0
0
0
0
0
0
0
0
0
0
0
0
0
0
0
0
0
0
0
0
0
0
0
0
0
0
0
0
0
0
0
0
0
0
0
0
0
0
0
0
0
0
0
0
0
0
0
0
0
0
0
0
0
0
0
0
0
0
0
0
0
0
0
0
0
0
0
0
0
0
0
0
0
0
0
0
0
0
0
0
0
0
0
0
0
0
0
0
0
0
0
0
0
0
0
0
0
0
0
0
0
0
0
0
0
0
0
0
0
0
0
0
0
0
0
0
0
0
0
0
0
0
0
0
0
0
0
0
0
0
0
0
0
0
0
0
0
0
0
0
0
0
0
0
0
0
0
0
0
0
0
0
0
0
0
0
0
0
0
0
0
0
0
0
0
0
0
0
0
0
0
0
0
0
0
0
0
0
0
0
0
0
0
0
0
0
0
0
0
0
0
0
0
0
0
0
0
0
0
0
0
0
0
0
0
0
0
0
0

NodalMass_(kg) 1 343 double
3.15563e-06
1.41304e-05
2.20912e-06
1.71484e-05
8.42e-06
9.09306e-06
1.01179e-05
7.52198e-06
6.81096e-06
5.58223e-06
3.10888e-06
1.07575e-05
4.87011e-06
1.64955e-05
3.0246e-06
8.05984e-06
6.703e-06
1.0877e-05
4.18978e-06
8.16106e-06
6.14143e-06
1.17902e-05
2.23114e-06
4.25176e-06
1.09915e-05
7.41467e-06
4.21871e-06
3.92484e-06
3.08766e-06
1.31268e-05
7.72627e-06
1.65404e-05
1.19037e-05
7.97564e-06
3.81683e-06
1.11001e-05
3.81317e-06
1.39137e-05
6.37414e-06
8.00975e-06
7.6712e-06
1.21135e-05
1.6399e-05
2.78633e-06
8.93599e-06
2.58087e-06
7.57362e-06
4.23241e-06
1.31286e-05
3.80168e-06
2.7746e-06
7.16776e-06
1.21307e-05
5.11765e-06
8.19728e-06
4.58094e-06
2.79503e-06
3.26126e-06
4.12443e-06
2.11915e-06
3.35177e-06
3.61669e-06
1.56838e-05
7.33679e-06
8.24695e-06
5.00369e-06
2.82625e-06
7.20276e-06
3.26815e-06
4.18751e-06
2.02785e-06
2.42152e-06
3.11835e-06
5.97459e-06
5.87101e-06
4.09374e-06
5.45463e-06
2.28825e-06
4.49759e-06
4.38192e-06
4.50892e-06
4.39234e-06
4.27273e-06
5.32031e-06
1.53201e-06
2.38869e-06
2.02885e-06
4.38798e-06
3.17972e-06
3.14298e-06
4.61567e-06
5.87645e-06
8.18088e-06
2.48341e-06
1.53815e-05
3.49683e-06
7.35227e-06
2.01314e-06
2.0408e-06
7.98183e-06
4.41293e-06
7.1389e-06
1.20123e-06
5.03343e-06
1.61257e-06
4.12601e-06
8.73748e-06
4.37849e-06
7.97173e-06
2.13557e-06
3.38137e-06
9.48623e-06
7.40262e-06
1.80226e-06
2.10222e-06
7.98889e-06
1.87983e-06
7.44814e-06
4.19782e-06
2.37156e-06
4.31705e-06
6.06441e-06
4.30905e-06
2.16843e-06
1.8986e-06
1.81294e-06
3.89762e-06
2.44299e-06
1.65628e-06
8.01374e-06
1.64513e-06
2.3931e-06
3.01363e-06
2.99431e-06
1.36541e-06
1.87293e-06
2.09622e-06
1.94762e-06
1.87618e-06
6.37913e-06
4.58628e-06
2.02767e-06
1.61999e-06
2.41284e-06
3.8865e-06
4.44973e-06
2.29839e-06
1.17349e-05
3.11811e-06
1.354e-06
3.45063e-06
1.81846e-06
2.9382e-06
1.37381e-06
2.41464e-06
2.10451e-06
2.63927e-06
2.14166e-06
1.7943e-06
3.19976e-06
1.36989e-06
2.43489e-06
2.08158e-06
1.3601e-06
2.17203e-06
1.89924e-06
3.16996e-06
2.6119e-06
2.37677e-06
1.60225e-06
1.90684e-06
5.49206e-06
1.87878e-06
3.14313e-06
2.97301e-06
1.18454e-06
1.89263e-06
2.04166e-06
2.73572e-06
2.42405e-06
3.23083e-06
3.19752e-06
3.2142e-06
1.94492e-06
1.61196e-06
1.86876e-06
3.22435e-06
2.1114e-06
2.96917e-06
6.15288e-06
2.3097e-06
2.39729e-06
2.38029e-06
2.64508e-06
1.66557e-06
1.82377e-06
2.06583e-06
5.73271e-06
2.08467e-06
2.18324e-06
2.43522e-06
3.1188e-06
3.17316e-06
2.05447e-06
1.9592e-06
3.05718e-06
6.44327e-06
2.08796e-06
2.72615e-06
2.15709e-06
1.86812e-06
2.0028e-06
2.10999e-06
2.88994e-06
2.3222e-06
2.3979e-06
1.97629e-06
6.4127e-06
2.16225e-06
3.29198e-06
2.10223e-06
2.66566e-06
1.94415e-06
2.91865e-06
2.58116e-06
2.11703e-06
2.09534e-06
1.91719e-06
7.06046e-06
2.25203e-06
2.06378e-06
6.28159e-06
2.12147e-06
2.90924e-06
2.12921e-06
6.4487e-06
1.41701e-06
2.0682e-06
6.58062e-06
2.52584e-06
2.39732e-06
7.42191e-07
2.22368e-06
7.06751e-07
7.00657e-07
8.93749e-07
2.53536e-06
2.26535e-06
1.33607e-06
7.84725e-07
2.32303e-06
6.06694e-07
6.68276e-07
6.84307e-07
2.51242e-06
2.31629e-06
7.8367e-07
6.80839e-07
6.22692e-06
6.7471e-07
6.65305e-07
7.01158e-07
1.8232e-06
1.90695e-06
6.86722e-07
7.04792e-07
1.86445e-06
2.28572e-06
6.8045e-07
7.16005e-07
1.82373e-06
6.01079e-07
2.02791e-06
7.4579e-07
5.74423e-07
1.80052e-06
1.454e-06
2.2702e-06
1.80636e-06
2.15356e-06
1.79089e-06
1.79456e-06
6.8231e-07
2.24737e-06
1.45239e-06
1.79556e-06
6.97875e-07
6.24265e-07
6.62717e-07
1.44627e-06
1.40138e-06
2.15258e-06
1.82851e-06
1.3994e-06
1.43932e-06
2.19226e-06
6.97732e-07
1.77726e-06
1.79162e-06
6.54258e-07
7.3397e-07
2.34895e-06
7.10392e-07
6.56982e-07
6.26314e-07
2.18926e-06
6.12493e-07
6.03901e-07
5.92831e-07
5.12031e-07
5.11667e-07
4.9467e-07
4.97016e-07
4.96269e-07
5.33079e-07
4.94191e-07
4.97855e-07
4.86862e-07
4.90626e-07
4.94649e-07
4.94954e-07
4.91922e-07
4.89615e-07
4.96354e-07
4.95189e-07
4.82188e-07
1.10854e-06
5.3299e-07
5.44763e-07
5.36655e-07
5.15417e-07
5.01772e-07
5.53774e-07
5.53774e-07
5.53774e-07
5.53774e-07
5.53774e-07
5.53774e-07
5.50785e-07
5.50785e-07
7.45291e-07
7.11668e-07
4.9897e-07

NodalForce_(N) 3 343 double
1.65667e-07 -1.59586e-08 1.12491e-08
1.11803e-06 -2.38309e-07 3.77145e-07
0.000203648 -8.85956e-06 0.000576295
5.5915e-07 -3.11154e-07 3.52288e-07
-7.92828e-07 -1.40458e-06 1.8406e-06
-1.18155e-06 -1.31127e-06 2.14159e-06
2.41635e-07 -3.15117e-06 5.19673e-06
9.58735e-07 -1.53522e-06 2.51992e-06
-1.48623e-06 -1.86799e-06 2.91595e-06
9.52352e-08 -6.9124e-07 1.13673e-06
-1.17982e-06 -4.41894e-07 6.23086e-07
-3.31184e-06 -2.03061e-06 2.96415e-06
-1.62144e-06 -7.43228e-07 9.00445e-07
-1.42885e-06 -2.93091e-07 4.57878e-07
-1.02409e-06 -3.6833e-07 6.42567e-07
-4.91029e-07 -1.99869e-06 3.56802e-06
4.86259e-07 -1.40912e-06 2.4078e-06
-3.24468e-07 -2.49058e-07 3.9789e-07
0.000851516 0.000581759 0.000402339
9.07903e-08 -5.01513e-08 1.00309e-07
5.89837e-07 -1.69706e-06 2.52472e-06
-1.43271e-06 -4.3065e-06 6.28482e-06
0.00179343 -0.000278688 0.000402987
7.19756e-07 -5.82257e-07 7.34086e-07
9.49005e-07 -1.8958e-06 2.7186e-06
1.12659e-06 -6.51498e-07 1.21426e-06
-1.21608e-07 -2.16251e-08 6.1204e-08
6.85082e-08 -5.37433e-07 7.1035e-07
7.11153e-07 -7.27454e-08 1.94349e-07
1.38116e-06 -8.57298e-08 3.1752e-07
1.81169e-06 -4.9727e-07 1.31161e-06
-1.0762e-06 -5.60404e-06 9.83349e-06
-2.9573e-06 -4.06015e-06 6.97692e-06
1.62913e-07 -2.92529e-06 4.96925e-06
1.39351e-06 -1.92736e-06 3.16328e-06
2.11388e-06 -3.35115e-06 5.59634e-06
1.57703e-06 -1.50889e-06 2.42866e-06
6.75839e-06 -4.61244e-06 7.89335e-06
-7.05415e-07 -4.27435e-07 6.72809e-07
-1.74091e-06 -8.27906e-07 1.68498e-06
-1.07858e-06 -8.25168e-07 8.75356e-07
-5.72714e-07 -1.62965e-06 3.04217e-06
-3.42748e-07 -2.8901e-07 4.29715e-07
1.6282e-07 -1.22145e-07 1.6995e-07
7.04164e-07 -7.40872e-07 1.08508e-06
0.000985981 -8.34818e-05 -0.00033823
2.66416e-07 -9.57004e-08 1.30463e-07
0.00047378 0.000534633 -0.000424515
-5.80762e-07 -2.31518e-07 5.08611e-07
-2.40458e-07 -3.20538e-08 4.21555e-08
-7.29783e-07 -7.6659e-07 1.42378e-06
-1.33869e-06 -1.38454e-06 2.71061e-06
5.5656e-07 -9.25366e-08 3.17442e-07
3.67944e-08 -1.63891e-07 3.47753e-07
-1.53386e-08 -7.06191e-08 1.43652e-07
-9.13375e-07 -2.33651e-06 3.92051e-06
0.000734523 -0.000261367 -1.12069e-06
3.32675e-07 -3.23552e-08 4.50873e-08
0.00191208 -0.000603343 0.000696939
-1.70621e-08 -1.06613e-06 1.80437e-06
-7.24962e-07 -1.50662e-07 3.2987e-07
-2.69788e-07 -2.04975e-06 3.00302e-06
2.27815e-06 -6.17635e-06 8.94649e-06
3.89938e-07 -2.88693e-06 4.51072e-06
-4.87447e-07 -8.20364e-07 8.50944e-07
1.93745e-07 -1.7696e-08 6.77589e-08
-4.91062e-07 -1.97029e-07 1.72324e-07
-1.9607e-06 -1.4777e-06 2.70621e-06
8.95545e-07 -1.63143e-06 2.7053e-06
-7.0575e-07 -1.91998e-06 2.66987e-06
4.0073e-07 -1.24062e-07 2.22633e-07
-6.01082e-07 -1.39605e-07 2.12318e-07
-1.80374e-07 -2.11781e-07 1.92927e-07
-8.19464e-07 -6.53159e-07 1.3619e-06
1.81563e-07 -2.87635e-07 4.25908e-07
0.00123012 -0.000340764 -0.000492078
2.31372e-07 -6.99612e-07 1.09135e-06
1.5358e-07 -1.68685e-08 2.58976e-08
-8.73913e-07 -8.82102e-07 1.62505e-06
-2.65559e-08 -9.16837e-07 1.6574e-06
-2.08345e-08 -4.76376e-07 8.84415e-07
-6.294e-07 -4.61128e-07 8.13571e-07
8.09043e-07 -2.15083e-06 3.58505e-06
5.89256e-07 -1.81114e-07 3.95128e-07
0.00117431 0.000385813 0.000176374
2.30172e-07 4.82219e-09 1.22589e-08
0.00120584 -8.40442e-05 -0.000318048
0.00199766 -0.000211227 -0.000496178
0.00107467 0.00075421 -0.000570049
5.74163e-07 -9.59771e-08 1.88129e-07
-2.89575e-07 -2.74037e-08 5.56932e-08
-7.73667e-08 -7.67098e-07 1.40053e-06
-8.41022e-07 -4.05123e-07 1.12924e-06
-1.22497e-06 -7.5033e-07 1.19608e-06
-6.32073e-06 -6.07143e-06 8.99629e-06
-2.24726e-07 -1.15168e-06 1.50675e-06
-1.8448e-07 -1.77383e-06 2.34273e-06
1.77333e-07 -1.08982e-06 1.66966e-06
0.00177148 0.000769516 -7.8745e-05
5.3429e-07 -1.77207e-06 2.89731e-06
9.69077e-07 -1.05498e-06 1.45721e-06
1.50381e-06 -1.53982e-06 2.50689e-06
1.26393e-07 -7.69124e-08 9.88865e-08
1.28037e-06 -2.01112e-06 3.23442e-06
1.84553e-07 -8.88829e-08 1.07508e-07
1.86293e-07 -1.05512e-06 1.45432e-06
2.61259e-06 -1.86291e-06 3.03054e-06
-1.41754e-06 -2.00379e-06 2.79635e-06
-1.97784e-06 -2.0168e-06 2.72036e-06
-1.5963e-07 -7.39261e-09 2.41885e-08
1.92257e-06 -8.85376e-07 1.62705e-06
3.15741e-06 -1.30882e-06 2.40769e-06
2.52813e-06 -1.27417e-06 2.52703e-06
0.00076742 0.000390884 -0.000376986
1.55157e-07 -1.19341e-06 1.74098e-06
-2.32388e-07 -9.04878e-08 1.81725e-07
9.23805e-07 -9.44563e-07 1.56766e-06
1.46202e-06 -2.74733e-06 4.56357e-06
2.23981e-06 -8.89733e-07 1.47532e-06
-9.42013e-07 -7.99872e-07 1.02734e-06
-9.93484e-07 -2.44887e-06 3.60264e-06
-8.51253e-07 -2.37523e-06 3.78374e-06
-2.27894e-07 -4.80542e-08 6.11531e-08
0.00147353 0.000211928 0.000364615
-1.2668e-07 -2.88673e-08 8.61434e-09
1.79984e-07 -9.06009e-07 1.51908e-06
2.21413e-06 -7.0582e-07 1.33133e-06
0.00166953 0.000483076 -0.00072456
-8.50255e-08 -1.94653e-08 2.61537e-08
1.61237e-06 -7.41548e-07 1.08951e-06
1.61262e-07 -6.65981e-07 1.0967e-06
8.82264e-08 -1.20147e-06 2.04564e-06
-1.5073e-06 -6.97314e-07 1.05957e-06
-1.27733e-06 -8.81482e-07 1.55576e-06
0.00102828 -0.000158769 0.000404486
2.0537e-08 -2.08658e-09 1.80034e-08
0.00147828 -0.000389626 0.000366024
-2.83806e-08 -9.05065e-07 1.24965e-06
7.5339e-07 -9.28355e-07 1.5563e-06
2.48575e-06 -2.35824e-06 3.97649e-06
-1.6559e-06 -1.76604e-06 3.07199e-06
-1.17176e-06 -7.44627e-07 1.1019e-06
-7.75808e-07 -7.61441e-07 1.04693e-06
-9.40627e-07 -1.38277e-06 2.03107e-06
0.00110492 0.000535731 -0.000727239
-2.13247e-06 -1.17767e-06 1.56068e-06
-1.98679e-07 -3.36607e-07 3.41762e-07
3.46056e-06 -4.02798e-06 6.50934e-06
7.7599e-07 -1.63452e-06 2.56754e-06
1.32986e-07 -1.50993e-07 2.11477e-07
6.68082e-07 -1.59367e-07 2.10232e-07
-1.04171e-08 -6.80612e-09 1.21387e-08
0.0023813 0.000777788 -4.70685e-05
-6.98756e-08 -6.98702e-07 1.15653e-06
1.10381e-06 -6.77835e-07 1.0483e-06
-4.02231e-07 -6.72423e-07 1.17822e-06
0.00151093 0.000175451 -0.000682071
0.000936177 0.000818062 0.00175063
-5.97133e-07 -4.50635e-07 8.63479e-07
-7.69069e-07 -1.72062e-06 2.69408e-06
-3.51639e-07 -2.09602e-07 2.0363e-07
-1.44481e-08 -8.46261e-08 1.57639e-07
5.40148e-07 -7.57062e-07 1.08221e-06
-3.56345e-07 -2.34845e-07 4.96543e-07
-2.71204e-07 -1.09464e-06 1.86166e-06
-5.00267e-07 -7.48275e-07 1.30423e-06
1.04982e-06 -9.08307e-07 1.4452e-06
7.1007e-07 -1.03939e-07 3.02294e-07
1.58441e-06 -7.13254e-07 1.27227e-06
9.95527e-07 -5.11824e-07 8.45108e-07
9.23886e-07 -3.21342e-07 6.4681e-07
1.52905e-06 -1.37074e-06 2.37269e-06
1.40969e-07 -7.12419e-07 9.7661e-07
-5.66542e-07 -1.34354e-07 3.29461e-07
-7.52128e-07 -2.61205e-07 6.70513e-07
-3.48604e-07 -1.17929e-07 2.68873e-07
-2.13464e-08 -6.12293e-07 1.04845e-06
-4.07158e-07 -1.35097e-07 1.0921e-07
7.10827e-07 -1.39468e-06 2.25626e-06
0.00179094 -0.000134462 0.000246832
-1.05492e-06 -1.69477e-06 2.75223e-06
1.42163e-06 -1.28622e-06 2.05712e-06
7.92576e-07 -1.75885e-06 2.64338e-06
0.00138968 -0.000165623 -0.000348126
-1.61227e-07 -6.96241e-08 1.28083e-07
-1.02553e-06 -7.30151e-07 9.83347e-07
-1.76961e-06 -1.3628e-06 2.13151e-06
-9.72345e-07 -9.04708e-07 1.49649e-06
5.17696e-07 -5.79092e-07 8.33621e-07
7.45079e-07 -8.57867e-07 1.37604e-06
6.95095e-07 -4.46792e-07 6.27824e-07
2.95968e-07 -6.72514e-07 1.05588e-06
-3.65654e-07 -6.59532e-08 2.77738e-07
7.5609e-07 -2.29837e-07 4.98389e-07
-1.5993e-07 -1.26656e-07 9.88833e-08
-2.81304e-07 -1.59933e-07 1.34771e-07
7.686e-07 -1.08631e-06 1.70476e-06
1.54396e-06 -4.00923e-07 8.02751e-07
2.0573e-07 -1.08664e-06 1.7341e-06
1.03369e-06 -5.01979e-07 9.40033e-07
1.38499e-06 -9.70512e-07 1.57187e-06
0.00146667 -0.00025367 -6.4249e-05
1.55105e-07 -2.07941e-08 3.49526e-08
0.00133377 -0.00064921 -2.12797e-05
8.52193e-07 -1.99044e-07 3.8297e-07
1.15766e-06 -3.5558e-07 5.46336e-07
1.18719e-06 -7.7082e-07 1.48914e-06
8.87296e-07 -6.06176e-07 1.02396e-06
-3.88015e-07 -6.50686e-07 7.40094e-07
-5.83925e-07 -5.20707e-07 5.87502e-07
1.38559e-07 -1.39183e-08 7.33158e-09
7.08948e-07 -8.59748e-07 1.2998e-06
-3.75782e-07 -1.09426e-06 1.78434e-06
8.57248e-07 -8.38874e-07 1.30047e-06
-9.51126e-07 -4.60839e-07 8.21141e-07
9.69488e-09 -1.12217e-07 1.26172e-07
-8.42185e-07 -1.09743e-06 1.6802e-06
7.72566e-08 -1.40978e-07 2.8527e-07
7.69284e-07 -4.11702e-07 7.54534e-07
1.79157e-06 -1.17947e-06 2.06222e-06
1.68105e-07 -3.78793e-07 6.00981e-07
-1.60008e-07 -1.38752e-06 2.2365e-06
7.72627e-07 -3.4605e-07 5.09495e-07
-6.74571e-07 -9.94698e-07 1.30688e-06
3.74731e-07 -1.17407e-07 1.41209e-07
0.0016784 0.000310713 0.000693774
-4.30872e-07 -2.15623e-07 4.97569e-07
-6.87406e-07 -4.37829e-07 5.20507e-07
5.13466e-07 -3.8542e-07 6.59452e-07
4.41658e-07 -2.60012e-07 3.25639e-07
-3.55447e-07 -3.15831e-07 2.82502e-07
-1.54313e-07 -3.48624e-07 6.67979e-07
0.00197681 -0.00140582 7.09279e-05
0.00196878 0.00072972 -0.00115698
8.16854e-07 -2.29793e-07 5.70411e-07
1.09173e-06 -7.6211e-07 1.34265e-06
-6.43504e-08 -3.12063e-07 3.80522e-07
2.15925e-07 -1.05172e-06 1.72585e-06
3.94699e-07 -3.52137e-07 6.31499e-07
-8.4224e-07 -4.34141e-07 9.13205e-07
1.02045e-06 -1.21806e-06 1.97804e-06
0.000774652 0.000739976 -2.78037e-05
1.4489e-06 -8.4328e-07 1.46969e-06
6.70043e-08 -8.65366e-08 9.7603e-08
0.000868223 1.97738e-05 -0.000985438
-1.0863e-07 -1.50962e-07 2.66879e-07
0.00198911 -0.00118337 0.00015513
1.24188e-06 -1.11505e-06 1.87643e-06
8.31e-07 -6.68752e-07 1.12322e-06
0.000803765 -0.00105387 9.54614e-05
5.97798e-07 -3.55043e-07 5.96514e-07
0.000730902 0.0011893 -7.73657e-05
-5.62296e-08 -3.93146e-07 5.54831e-07
1.3416e-07 -3.54333e-07 5.78259e-07
9.52765e-07 -1.98073e-07 4.88044e-07
-1.59848e-07 -1.24631e-06 1.93528e-06
1.09605e-07 -1.67403e-07 2.11659e-07
0.000692193 -0.00015688 0.000801392
-2.11691e-07 -4.35281e-07 6.51766e-07
-3.33223e-07 -1.3612e-07 1.87752e-07
-2.62923e-07 -3.90312e-07 5.5401e-07
0.000452197 -0.000401384 0.00102672
1.2549e-06 -7.48224e-07 1.24201e-06
1.21625e-06 -9.55758e-07 1.58803e-06
-1.6507e-07 -4.01782e-07 5.7205e-07
3.66171e-07 -3.60821e-07 5.90681e-07
7.19323e-08 -2.95924e-08 1.40205e-08
0.00100514 0.000481271 9.14755e-05
0.000701501 -0.00100586 0.000149335
0.00075338 -0.000977069 6.53357e-05
1.32313e-06 -7.22824e-07 1.24954e-06
3.07153e-07 -3.07487e-07 4.9996e-07
5.71947e-07 -2.34962e-07 2.80903e-07
-2.27324e-07 -3.77602e-07 6.49559e-07
0.000737405 0.000510053 0.000111566
0.000417839 0.000359268 -0.000528758
-1.04826e-07 -2.61932e-08 1.64618e-08
-1.58085e-07 -2.04062e-08 2.21071e-08
-2.67266e-08 -7.6742e-07 1.29258e-06
-7.54171e-08 -2.56343e-08 2.88343e-08
0.000637196 -0.000246315 -0.000281113
-1.24035e-07 -9.17528e-07 1.55237e-06
4.72816e-07 -1.73862e-07 2.98266e-07
4.18625e-07 -1.29197e-06 1.85483e-06
-6.5914e-09 -8.9259e-09 3.61007e-08
-3.46301e-07 -7.57158e-07 1.2848e-06
-2.82964e-07 -3.65053e-07 6.04728e-07
0.000397667 -0.000396488 0.00076834