# vtk DataFile Version 4.2
vtk output
ASCII
DATASET UNSTRUCTURED_GRID

POINTS 343 double
0.00161187 0.00421624 -2.0619e-05
0.00311733 0.00502398 0.00213535
0 0.00419538 0.00112517
0.00277486 0.00199109 0.00190665
0.00744686 0.00251083 0.00494006
0.00744342 0.00393182 0.00630463
0.0109754 0.00492826 0.00486473
0.00896196 0.00497419 0.00358221
0.00984577 0.00342627 0.00679169
0.00718009 0.00509025 0.00491062
0.00601896 0.0012018 0.00992177
0.00760531 0.00218633 0.00780817
0.00603884 7.74301e-05 0.00824143
0.00289023 0.00204012 0.0079968
0.00616669 0.00261704 0.00991953
0.0100051 0.00658368 0.00682218
0.00922692 0.00630884 0.00506944
0.00324945 0.00222765 0.00510496
0 0.00143586 0.00417514
0.00228986 0.00349617 0.00400776
0.00985287 0.00333249 0.00304244
0.0111646 0.002373 0.00492742
0 0.00270918 0.00154168
0.00599792 0.00151338 -7.11777e-05
0.00721905 0.00228923 0.00210986
0.00570563 0.00360499 0.00153347
0.00193518 2.4387e-05 0.00403559
0.00603676 7.80836e-05 0.0016142
0.00377382 0.00700227 -4.58192e-05
0.00277843 0.00808951 0.00190896
0.00587889 0.00632741 0.00157308
0.0115063 0.00814183 0.00785239
0.0114649 0.00497566 0.00787795
0.0120686 0.0062473 0.00579869
0.014372 0.0090173 0.00402044
0.0108975 0.0077844 0.00483017
0.0123155 0.0101482 0.00401774
0.0114778 0.00812841 0.00187918
0.00508552 0.00310475 0.00689597
0.00638245 0.00374805 0.00824253
0.00560546 0.00167828 0.00589908
0.00718926 0.00776438 0.00758585
0.00285089 0.00804539 0.00795357
0.00405218 0.01005 0.00707567
0.00562193 0.00847402 0.00588686
0 0.00695361 0.00262895
0.00236187 0.00627043 0.00405765
0 0.0040177 0.00850214
0.00332172 0.00502913 0.00761959
0.00205536 0.0042008 0.00997392
0.010314 0.00725756 0.00986602
0.00879671 0.00609012 0.0083057
0.00294178 0.00798032 0.00470414
0.00436914 0.00700129 0.00641295
0.00227619 0.0061083 0.00589693
0.0143648 0.00598332 0.00813049
0 0.00718191 0.00711644
0.00227404 0.00580395 -2.88195e-05
0 0.00577432 0.00158701
0.0143668 0.00735417 0.00693359
0.00411929 0.00340349 0.0099459
0.0143642 0.00162154 0.00400312
0.0115915 0.00211004 0.00184198
0.0120855 0.00367336 0.00385232
0.00536719 0.00172257 0.00406092
0.00216036 0.0100277 0.00578719
0.00404787 5.22787e-05 0.00707731
0.00879205 0.00429215 0.00826423
0.0143679 0.00744836 0.00402325
0.0123056 0.000155609 0.00401919
0.00481371 0.00293593 -5.75861e-05
0.00388245 0.00159093 0.00994921
0.00406364 5.27369e-05 0.00278092
0.00689823 0.00528718 0.00746685
0.00454351 0.00320746 0.00310962
0 0.00849157 0.00581511
0.00700446 0.00376593 0.00369929
0.00220933 0.00273779 -2.7921e-05
0.00832899 0.00842692 0.00989111
0.00859159 0.010104 0.00839598
0.00604483 0.010074 0.00824029
0.00576489 0.00857453 0.00992404
0.0143689 0.00865946 0.00563559
0.00452076 0.00689437 0.0030928
0 0.00748929 0.00137438
0.00196868 0.00751501 -2.51341e-05
0 0.00287343 0.00335182
0 0.00580816 0.00831736
0 0.00429792 0.00253898
0.00364406 0.00434513 -4.42306e-05
0.00205488 0.00584564 0.00997383
0.007439 0.00656908 0.00630678
0.00517393 0.0065778 0.00816767
0.00998401 0.00275328 0.00987051
0.0115292 0.0021042 0.00788943
0.010019 0.000127858 0.00296098
0.00865185 0.00177525 0.00350719
0.0143653 0.00305533 0.00318136
0 0.00140616 0.00256446
0.00915939 0.00834014 0.0063062
0.00836553 0.0015434 -9.80257e-05
0.00867874 0.00366252 0.00149939
0.00452725 0.0100557 0.00576699
0.0123057 0.0101483 0.0056797
0.00368067 0.00145394 -4.45305e-05
0.00859012 0.000110435 0.00139125
0.00902952 0.00839892 0.00350607
0.0122965 0.000155523 0.00568102
0.00891642 0.0017868 0.00625417
0.00201229 0.0025896 0.00997435
0.0102379 0.0073081 -0.000120345
0.00742712 0.00778279 0.00207764
0.00854534 0.0062007 0.00149917
0 0.00686719 0.00578184
0.0143678 0.00159252 0.00239703
0.00254417 0.00364299 0.00637555
0.014374 0.0086545 0.00245418
0.0120929 0.00633803 0.00398608
0.008599 0.0101047 0.0013895
0.0100134 0.000127543 0.00680186
0.0143625 0.00162071 0.00564105
0.0120679 0.00372443 0.00591088
0.00215953 2.71843e-05 0.005788
0 0.0013659 0.00748679
0.00195983 2.47171e-05 0.00750453
0.0143662 0.00704086 0.00560176
0.00836535 0.00859509 -9.94438e-05
0 0.0075208 0.00859127
0.00195522 0.00751148 0.00997515
0.00607737 0.00828146 0.00355129
0.0123533 0.0101474 0.00735537
0.0143705 0.00879747 0.00734145
0.0082898 0.0016925 0.00989227
0.0104288 0.00431816 0.00986445
0 0.0057735 0.00666667
0.00196102 0.0100251 0.00750362
0 0.00863025 0.00752641
0.0123473 0.000157628 0.00236038
0.01437 0.00712837 0.00245997
0.0121649 0.00649138 0.00201873
0.0122302 0.00597394 0.00984228
0.0107594 0.00151083 0.00986103
0.0123438 0.000157179 0.00735721
0.0143634 0.00155111 0.00730339
0 0.00143551 0.00581971
0.00858251 0.000109763 0.00839696
0.0060493 7.79774e-05 0.00332492
0.01141 0.00485054 0.0018993
0.0143673 0.00447715 0.00237157
0.00607036 0.0100742 0.0065891
0.00406693 0.0100499 0.00277949
0.00188041 2.3959e-05 0.0023943
0 0.00727418 0.00419576
0.0143644 0.00594922 0.0064845
0.0100284 0.0101213 0.00295902
0.01079 0.00876658 0.00985978
0 0.00574334 0.00336387
0 0.0043297 0.00416652
0.00986848 0.00590596 0.0098718
0.0143619 0.00320346 0.00673436
0.0060637 7.80205e-05 0.00659076
0.00355242 0.0100438 0.00856564
0.0107661 0.00150424 -0.000124955
0.0082924 0.00676927 0.0098918
0.0143688 0.00769197 0.00840274
0.012375 0.00770259 0.00983985
0.00994376 0.00314907 -0.000115765
0.00483154 0.00580572 -5.79662e-05
0.010831 0.00876265 -0.000126597
0.0108128 0.0101303 0.00125832
0.00831546 0.0069709 -9.8418e-05
0.0100282 0.00649565 0.00291158
0.0108036 0.000139012 0.00125944
0.00413535 0.00505077 0.00994587
0.00621443 0.00591119 0.00991857
0.00621294 0.0042444 0.00991877
0.010806 0.0101289 0.00847783
0.0035485 4.55177e-05 0.00856688
0.0143671 0.00591996 0.00319344
0 0.00302218 0.00691532
0.0143633 0.00419758 0.00831406
0.0122299 0.00417196 -0.00014079
0.01437 0.00289161 0.00137926
0 0.00244495 0.00857025
0.00350562 0.00861391 0.00995407
0.0107963 0.000138163 0.00847918
0.0121972 0.00277695 0.0098426
0.0127199 0.0043523 0.00983533
0.00814916 0.0100989 0.00573063
0.00745132 0.00767624 0.00493906
0.00811096 0.0100984 0.00411368
0.0100225 0.0101211 0.00680044
0.00433452 0.00697025 0.00994317
0.00598689 0.00440687 -7.09305e-05
0.00406684 5.22984e-05 0.0043538
0.00452245 5.84333e-05 0.00576914
0.014372 0.00437537 0.000963835
0.00522579 0.00840321 0.00152341
0.0143646 0.00450831 0.00399343
0.00958838 0.00589308 -0.00011279
0.0123569 0.0101484 0.00235896
0 0.00848692 0.00262374
0.0019357 0.0100251 0.00403475
0 0.00885053 0.00419359
0.00602889 0.00892551 -7.24265e-05
0.00604277 0.0100738 0.00161286
0.00718316 0.00488306 0.00229124
0.010383 0.0046524 -0.000120928
0.00810226 0.000103816 0.00411618
0.00814089 0.000104348 0.00573257
0.00188058 0.0100241 0.00239333
0.0123268 0.00260227 -0.000142219
0.0143625 0.00470034 0.00703663
0.0102301 0.0101238 0.00487304
0.00824619 0.00346768 0.00989247
0.0035264 4.60553e-05 0.00131263
0.014364 0.00262806 0.00838186
0.00343459 0.00483513 0.00495634
0.00838665 0.00443677 -9.82651e-05
0.0119661 0.00595575 -0.000137844
0.00787294 0.0100956 0.00712027
0.0143625 0.00450863 0.00565497
0.00776759 0.0100945 0.00267948
0.010221 0.000130112 0.00487467
0.00407022 0.0100501 0.00435173
0 0.00452174 0.00721958
0.00649031 0.0073006 0.00991483
0.00786469 0.000100828 0.00712134
0.00517249 0.00514016 0.00353093
0.0061072 0.0100743 0.0049304
0.00610037 7.87573e-05 0.00493291
0.00526811 0.00528375 0.00610836
0 0.005744 0.00499998
0 0.00433013 0.00583333
0.00718797 0.0058354 -8.4975e-05
0.00716231 0.00642959 0.00346464
0.00775917 9.96221e-05 0.0026814
0.0143649 0.00591929 0.00482363
0.00529775 0.0064756 0.00477693
0.00824825 0.00510269 0.0098924
0.0143719 0.00595005 0.00142387
0 0.00666667 0
0.0123623 0.00767116 -0.00014247
0.00478641 6.24986e-05 -5.70631e-05
0 0.01 0.00666667
0.00718291 0.0100864 0.00990628
0 0.00288419 0.00499914
0.014375 0.00766184 0.00121143
0.0143788 0.00684025 -0.000160398
0 0.005 0.01
0.00718464 0.00297666 -8.45762e-05
0 0.005 0
0.0143705 0.000189773 0.00316386
0.0143781 0.0101625 0.00648361
0.00603068 0.00735034 -7.2061e-05
0.0143631 0.00306628 0.00482355
0.00718509 9.35671e-05 -8.49673e-05
0 0 0.00666667
0.00545196 0.00368623 0.00515776
0.00717573 9.18836e-05 0.00990736
0.0143673 0.000189222 0.00648573
0 0 0.005
0.0126359 0.0101505 0.00107289
0.01438 0.00894732 0.00105777
0.0143681 0.000189197 0.00482425
0.0143773 0.00517835 -0.000159255
0.00174794 0.0012425 -2.2099e-05
0 0.00122008 0.00122008
0 0.00333333 0.01
0 0.00666667 0.01
0.0126358 0.00893145 -0.000145541
0.0143809 0.0101621 0.00316139
0.00605561 0.0100737 0.00332268
0.0143721 0.00683966 0.0098066
0 0.00333333 0
0 0.00122008 0.00877992
0.00174571 2.20256e-05 0.0087583
0.00174553 0.00124206 0.00997774
0.0126279 0.010149 0.00861692
0.00174655 0.00880199 0.00997765
0 0.00877992 0.00877992
0.0143731 0.00894592 0.00859111
0.00959424 0.0101158 -0.000114188
0.0143727 0.00140773 0.00105776
0.00174711 0.0100221 0.00875769
0.0126262 0.00892922 0.00983574
0.0143703 0.00517683 0.00980718
0 0 0.00333333
0.00958452 0.000124119 -0.000112252
0.0126257 0.000162954 0.00107324
0.00173552 2.22714e-05 0.00118987
0 0.00877992 0.00122008
0.00174736 0.00880268 -2.23647e-05
0.00173548 0.0100221 0.00118895
0.0143659 0.0014062 0.00859179
0.0126191 0.00138152 0.00983674
0.00957369 0.000122556 0.00987659
0.0126287 0.00138337 -0.000145146
0.0126183 0.000161736 0.00861838
0.0143769 0.00351562 -0.000158989
0.00478421 0.0100578 0.00993722
0.00352877 0.0100435 0.00131153
0.00958331 0.0101144 0.00987566
0.0143687 0.00351355 0.00980699
0 0.01 0.005
0.00376698 0.0085348 -4.59967e-05
0.0143787 0.0101622 0.00482384
0 0.01 0.00333333
0 0.00166667 0
0.0143746 0.000189635 0.00150271
0 0.00166667 0.01
0 0.00833333 0
0.0143834 0.00850314 -0.000161017
0.0143684 0.000188823 0.00814766
0.0143853 0.010164 0.00150257
0.0143791 0.0101627 0.00814607
0.00238841 0.0100291 0.00996918
0 0.01 0.00833333
0.0119969 0.0101428 -0.000139682
0.0119866 0.000155806 -0.000138889
0.0119766 0.000153928 0.00984584
0.0119864 0.0101409 0.00984468
0 0 0.00833333
0.0143758 0.00850001 0.00980757
0.00238942 3.1402e-05 -2.95761e-05
0 0 0.00166667
0.00479048 0.0100589 -5.82085e-05
0.0143694 0.00185228 0.00980823
0.0143779 0.0018544 -0.000159826
0.00238567 3.04775e-05 0.00996975
0.00239002 0.0100298 -3.01597e-05
0 0.01 0.00166667
0.0143817 0.0101643 0.00980901
0 0 0.01
0.0143907 0.010165 -0.000162283
0.0143716 0.000187651 0.00981081
0 0.01 0.01
0.0143806 0.000189335 -0.000161402
0 0.01 0
0 0 0
0.00719227 0.0100874 -8.66305e-05
0.00477923 6.13299e-05 0.00993789
0 0.00833333 0.01

CELLS 343 686
1 0
1 1
1 2
1 3
1 4
1 5
1 6
1 7
1 8
1 9
1 10
1 11
1 12
1 13
1 14
1 15
1 16
1 17
1 18
1 19
1 20
1 21
1 22
1 23
1 24
1 25
1 26
1 27
1 28
1 29
1 30
1 31
1 32
1 33
1 34
1 35
1 36
1 37
1 38
1 39
1 40
1 41
1 42
1 43
1 44
1 45
1 46
1 47
1 48
1 49
1 50
1 51
1 52
1 53
1 54
1 55
1 56
1 57
1 58
1 59
1 60
1 61
1 62
1 63
1 64
1 65
1 66
1 67
1 68
1 69
1 70
1 71
1 72
1 73
1 74
1 75
1 76
1 77
1 78
1 79
1 80
1 81
1 82
1 83
1 84
1 85
1 86
1 87
1 88
1 89
1 90
1 91
1 92
1 93
1 94
1 95
1 96
1 97
1 98
1 99
1 100
1 101
1 102
1 103
1 104
1 105
1 106
1 107
1 108
1 109
1 110
1 111
1 112
1 113
1 114
1 115
1 116
1 117
1 118
1 119
1 120
1 121
1 122
1 123
1 124
1 125
1 126
1 127
1 128
1 129
1 130
1 131
1 132
1 133
1 134
1 135
1 136
1 137
1 138
1 139
1 140
1 141
1 142
1 143
1 144
1 145
1 146
1 147
1 148
1 149
1 150
1 151
1 152
1 153
1 154
1 155
1 156
1 157
1 158
1 159
1 160
1 161
1 162
1 163
1 164
1 165
1 166
1 167
1 168
1 169
1 170
1 171
1 172
1 173
1 174
1 175
1 176
1 177
1 178
1 179
1 180
1 181
1 182
1 183
1 184
1 185
1 186
1 187
1 188
1 189
1 190
1 191
1 192
1 193
1 194
1 195
1 196
1 197
1 198
1 199
1 200
1 201
1 202
1 203
1 204
1 205
1 206
1 207
1 208
1 209
1 210
1 211
1 212
1 213
1 214
1 215
1 216
1 217
1 218
1 219
1 220
1 221
1 222
1 223
1 224
1 225
1 226
1 227
1 228
1 229
1 230
1 231
1 232
1 233
1 234
1 235
1 236
1 237
1 238
1 239
1 240
1 241
1 242
1 243
1 244
1 245
1 246
1 247
1 248
1 249
1 250
1 251
1 252
1 253
1 254
1 255
1 256
1 257
1 258
1 259
1 260
1 261
1 262
1 263
1 264
1 265
1 266
1 267
1 268
1 269
1 270
1 271
1 272
1 273
1 274
1 275
1 276
1 277
1 278
1 279
1 280
1 281
1 282
1 283
1 284
1 285
1 286
1 287
1 288
1 289
1 290
1 291
1 292
1 293
1 294
1 295
1 296
1 297
1 298
1 299
1 300
1 301
1 302
1 303
1 304
1 305
1 306
1 307
1 308
1 309
1 310
1 311
1 312
1 313
1 314
1 315
1 316
1 317
1 318
1 319
1 320
1 321
1 322
1 323
1 324
1 325
1 326
1 327
1 328
1 329
1 330
1 331
1 332
1 333
1 334
1 335
1 336
1 337
1 338
1 339
1 340
1 341
1 342

CELL_TYPES 343
1
1
1
1
1
1
1
1
1
1
1
1
1
1
1
1
1
1
1
1
1
1
1
1
1
1
1
1
1
1
1
1
1
1
1
1
1
1
1
1
1
1
1
1
1
1
1
1
1
1
1
1
1
1
1
1
1
1
1
1
1
1
1
1
1
1
1
1
1
1
1
1
1
1
1
1
1
1
1
1
1
1
1
1
1
1
1
1
1
1
1
1
1
1
1
1
1
1
1
1
1
1
1
1
1
1
1
1
1
1
1
1
1
1
1
1
1
1
1
1
1
1
1
1
1
1
1
1
1
1
1
1
1
1
1
1
1
1
1
1
1
1
1
1
1
1
1
1
1
1
1
1
1
1
1
1
1
1
1
1
1
1
1
1
1
1
1
1
1
1
1
1
1
1
1
1
1
1
1
1
1
1
1
1
1
1
1
1
1
1
1
1
1
1
1
1
1
1
1
1
1
1
1
1
1
1
1
1
1
1
1
1
1
1
1
1
1
1
1
1
1
1
1
1
1
1
1
1
1
1
1
1
1
1
1
1
1
1
1
1
1
1
1
1
1
1
1
1
1
1
1
1
1
1
1
1
1
1
1
1
1
1
1
1
1
1
1
1
1
1
1
1
1
1
1
1
1
1
1
1
1
1
1
1
1
1
1
1
1
1
1
1
1
1
1
1
1
1
1
1
1
1
1
1
1
1
1
1
1
1
1
1
1
1
1
1
1
1
1
1
1
1
1
1
1
1
1
1
1
1
1
1
1
1
1
1
1
1
1
1
1
1
1

POINT_DATA 343
FIELD FieldData 8

NodeID_(#) 1 343 int
0
1
2
3
4
5
6
7
8
9
10
11
12
13
14
15
16
17
18
19
20
21
22
23
24
25
26
27
28
29
30
31
32
33
34
35
36
37
38
39
40
41
42
43
44
45
46
47
48
49
50
51
52
53
54
55
56
57
58
59
60
61
62
63
64
65
66
67
68
69
70
71
72
73
74
75
76
77
78
79
80
81
82
83
84
85
86
87
88
89
90
91
92
93
94
95
96
97
98
99
100
101
102
103
104
105
106
107
108
109
110
111
112
113
114
115
116
117
118
119
120
121
122
123
124
125
126
127
128
129
130
131
132
133
134
135
136
137
138
139
140
141
142
143
144
145
146
147
148
149
150
151
152
153
154
155
156
157
158
159
160
161
162
163
164
165
166
167
168
169
170
171
172
173
174
175
176
177
178
179
180
181
182
183
184
185
186
187
188
189
190
191
192
193
194
195
196
197
198
199
200
201
202
203
204
205
206
207
208
209
210
211
212
213
214
215
216
217
218
219
220
221
222
223
224
225
226
227
228
229
230
231
232
233
234
235
236
237
238
239
240
241
242
243
244
245
246
247
248
249
250
251
252
253
254
255
256
257
258
259
260
261
262
263
264
265
266
267
268
269
270
271
272
273
274
275
276
277
278
279
280
281
282
283
284
285
286
287
288
289
290
291
292
293
294
295
296
297
298
299
300
301
302
303
304
305
306
307
308
309
310
311
312
313
314
315
316
317
318
319
320
321
322
323
324
325
326
327
328
329
330
331
332
333
334
335
336
337
338
339
340
341
342

Component_(#) 1 343 int
0
0
0
0
0
0
0
0
0
0
0
0
0
0
0
0
0
0
0
0
0
0
0
0
0
0
0
0
0
0
0
0
0
0
0
0
0
0
0
0
0
0
0
0
0
0
0
0
0
0
0
0
0
0
0
0
0
0
0
0
0
0
0
0
0
0
0
0
0
0
0
0
0
0
0
0
0
0
0
0
0
0
0
0
0
0
0
0
0
0
0
0
0
0
0
0
0
0
0
0
0
0
0
0
0
0
0
0
0
0
0
0
0
0
0
0
0
0
0
0
0
0
0
0
0
0
0
0
0
0
0
0
0
0
0
0
0
0
0
0
0
0
0
0
0
0
0
0
0
0
0
0
0
0
0
0
0
0
0
0
0
0
0
0
0
0
0
0
0
0
0
0
0
0
0
0
0
0
0
0
0
0
0
0
0
0
0
0
0
0
0
0
0
0
0
0
0
0
0
0
0
0
0
0
0
0
0
0
0
0
0
0
0
0
0
0
0
0
0
0
0
0
0
0
0
0
0
0
0
0
0
0
0
0
0
0
0
0
0
0
0
0
0
0
0
0
0
0
0
0
0
0
0
0
0
0
0
0
0
0
0
0
0
0
0
0
0
0
0
0
0
0
0
0
0
0
0
0
0
0
0
0
0
0
0
0
0
0
0
0
0
0
0
0
0
0
0
0
0
0
0
0
0
0
0
0
0
0
0
0
0
0
0
0
0
0
0
0
0
0
0
0
0
0
0
0
0
0
0
0
0
0
0
0
0
0
0
0
0
0
0
0
0

NodalMass_(kg) 1 343 double
3.15563e-06
1.41304e-05
2.20912e-06
1.71484e-05
8.42e-06
9.09306e-06
1.01179e-05
7.52198e-06
6.81096e-06
5.58223e-06
3.10888e-06
1.07575e-05
4.87011e-06
1.64955e-05
3.0246e-06
8.05984e-06
6.703e-06
1.0877e-05
4.18978e-06
8.16106e-06
6.14143e-06
1.17902e-05
2.23114e-06
4.25176e-06
1.09915e-05
7.41467e-06
4.21871e-06
3.92484e-06
3.08766e-06
1.31268e-05
7.72627e-06
1.65404e-05
1.19037e-05
7.97564e-06
3.81683e-06
1.11001e-05
3.81317e-06
1.39137e-05
6.37414e-06
8.00975e-06
7.6712e-06
1.21135e-05
1.6399e-05
2.78633e-06
8.93599e-06
2.58087e-06
7.57362e-06
4.23241e-06
1.31286e-05
3.80168e-06
2.7746e-06
7.16776e-06
1.21307e-05
5.11765e-06
8.19728e-06
4.58094e-06
2.79503e-06
3.26126e-06
4.12443e-06
2.11915e-06
3.35177e-06
3.61669e-06
1.56838e-05
7.33679e-06
8.24695e-06
5.00369e-06
2.82625e-06
7.20276e-06
3.26815e-06
4.18751e-06
2.02785e-06
2.42152e-06
3.11835e-06
5.97459e-06
5.87101e-06
4.09374e-06
5.45463e-06
2.28825e-06
4.49759e-06
4.38192e-06
4.50892e-06
4.39234e-06
4.27273e-06
5.32031e-06
1.53201e-06
2.38869e-06
2.02885e-06
4.38798e-06
3.17972e-06
3.14298e-06
4.61567e-06
5.87645e-06
8.18088e-06
2.48341e-06
1.53815e-05
3.49683e-06
7.35227e-06
2.01314e-06
2.0408e-06
7.98183e-06
4.41293e-06
7.1389e-06
1.20123e-06
5.03343e-06
1.61257e-06
4.12601e-06
8.73748e-06
4.37849e-06
7.97173e-06
2.13557e-06
3.38137e-06
9.48623e-06
7.40262e-06
1.80226e-06
2.10222e-06
7.98889e-06
1.87983e-06
7.44814e-06
4.19782e-06
2.37156e-06
4.31705e-06
6.06441e-06
4.30905e-06
2.16843e-06
1.8986e-06
1.81294e-06
3.89762e-06
2.44299e-06
1.65628e-06
8.01374e-06
1.64513e-06
2.3931e-06
3.01363e-06
2.99431e-06
1.36541e-06
1.87293e-06
2.09622e-06
1.94762e-06
1.87618e-06
6.37913e-06
4.58628e-06
2.02767e-06
1.61999e-06
2.41284e-06
3.8865e-06
4.44973e-06
2.29839e-06
1.17349e-05
3.11811e-06
1.354e-06
3.45063e-06
1.81846e-06
2.9382e-06
1.37381e-06
2.41464e-06
2.10451e-06
2.63927e-06
2.14166e-06
1.7943e-06
3.19976e-06
1.36989e-06
2.43489e-06
2.08158e-06
1.3601e-06
2.17203e-06
1.89924e-06
3.16996e-06
2.6119e-06
2.37677e-06
1.60225e-06
1.90684e-06
5.49206e-06
1.87878e-06
3.14313e-06
2.97301e-06
1.18454e-06
1.89263e-06
2.04166e-06
2.73572e-06
2.42405e-06
3.23083e-06
3.19752e-06
3.2142e-06
1.94492e-06
1.61196e-06
1.86876e-06
3.22435e-06
2.1114e-06
2.96917e-06
6.15288e-06
2.3097e-06
2.39729e-06
2.38029e-06
2.64508e-06
1.66557e-06
1.82377e-06
2.06583e-06
5.73271e-06
2.08467e-06
2.18324e-06
2.43522e-06
3.1188e-06
3.17316e-06
2.05447e-06
1.9592e-06
3.05718e-06
6.44327e-06
2.08796e-06
2.72615e-06
2.15709e-06
1.86812e-06
2.0028e-06
2.10999e-06
2.88994e-06
2.3222e-06
2.3979e-06
1.97629e-06
6.4127e-06
2.16225e-06
3.29198e-06
2.10223e-06
2.66566e-06
1.94415e-06
2.91865e-06
2.58116e-06
2.11703e-06
2.09534e-06
1.91719e-06
7.06046e-06
2.25203e-06
2.06378e-06
6.28159e-06
2.12147e-06
2.90924e-06
2.12921e-06
6.4487e-06
1.41701e-06
2.0682e-06
6.58062e-06
2.52584e-06
2.39732e-06
7.42191e-07
2.22368e-06
7.06751e-07
7.00657e-07
8.93749e-07
2.53536e-06
2.26535e-06
1.33607e-06
7.84725e-07
2.32303e-06
6.06694e-07
6.68276e-07
6.84307e-07
2.51242e-06
2.31629e-06
7.8367e-07
6.80839e-07
6.22692e-06
6.7471e-07
6.65305e-07
7.01158e-07
1.8232e-06
1.90695e-06
6.86722e-07
7.04792e-07
1.86445e-06
2.28572e-06
6.8045e-07
7.16005e-07
1.82373e-06
6.01079e-07
2.02791e-06
7.4579e-07
5.74423e-07
1.80052e-06
1.454e-06
2.2702e-06
1.80636e-06
2.15356e-06
1.79089e-06
1.79456e-06
6.8231e-07
2.24737e-06
1.45239e-06
1.79556e-06
6.97875e-07
6.24265e-07
6.62717e-07
1.44627e-06
1.40138e-06
2.15258e-06
1.82851e-06
1.3994e-06
1.43932e-06
2.19226e-06
6.97732e-07
1.77726e-06
1.79162e-06
6.54258e-07
7.3397e-07
2.34895e-06
7.10392e-07
6.56982e-07
6.26314e-07
2.18926e-06
6.12493e-07
6.03901e-07
5.92831e-07
5.12031e-07
5.11667e-07
4.9467e-07
4.97016e-07
4.96269e-07
5.33079e-07
4.94191e-07
4.97855e-07
4.86862e-07
4.90626e-07
4.94649e-07
4.94954e-07
4.91922e-07
4.89615e-07
4.96354e-07
4.95189e-07
4.82188e-07
1.10854e-06
5.3299e-07
5.44763e-07
5.36655e-07
5.15417e-07
5.01772e-07
5.53774e-07
5.53774e-07
5.53774e-07
5.53774e-07
5.53774e-07
5.53774e-07
5.50785e-07
5.50785e-07
7.45291e-07
7.11668e-07
4.9897e-07

NodalForce_(N) 3 343 double
-1.86067e-07 1.69199e-08 -1.47571e-08
-1.21858e-06 2.55855e-07 -4.41168e-07
0.000373485 5.40568e-05 0.000577798
-6.0505e-07 3.45192e-07 -4.08096e-07
9.9267e-07 1.55538e-06 -2.1786e-06
1.52185e-06 1.44858e-06 -2.55934e-06
-7.5574e-08 3.47805e-06 -6.23272e-06
-1.02181e-06 1.68749e-06 -2.99838e-06
1.87897e-06 2.07191e-06 -3.51045e-06
-2.91678e-08 7.59551e-07 -1.3472e-06
1.42345e-06 4.96703e-07 -7.65058e-07
4.03453e-06 2.2648e-06 -3.58203e-06
1.93143e-06 8.376e-07 -1.09238e-06
1.72315e-06 3.32796e-07 -5.37849e-07
1.25116e-06 4.1254e-07 -7.89025e-07
8.30676e-07 2.21271e-06 -4.30779e-06
-4.16176e-07 1.55302e-06 -2.88033e-06
4.13301e-07 2.7523e-07 -4.61787e-07
0.000758876 0.000667394 0.000263992
-8.00071e-08 5.37652e-08 -1.17267e-07
-6.47648e-07 1.87693e-06 -3.00879e-06
1.82254e-06 4.78363e-06 -7.53658e-06
0.00172025 -0.000454894 0.000326137
-8.5578e-07 6.45376e-07 -8.86156e-07
-1.09475e-06 2.10278e-06 -3.22863e-06
-1.2862e-06 7.155e-07 -1.4488e-06
1.44567e-07 2.44911e-08 -7.00639e-08
-9.38782e-08 5.96308e-07 -8.41958e-07
-8.13197e-07 7.57107e-08 -2.38543e-07
-1.50491e-06 8.44948e-08 -3.7697e-07
-2.03965e-06 5.31986e-07 -1.57147e-06
1.99761e-06 6.24785e-06 -1.19382e-05
3.8611e-06 4.50221e-06 -8.45499e-06
5.07807e-08 3.23573e-06 -5.99319e-06
-1.50271e-06 2.14083e-06 -3.81888e-06
-2.13959e-06 3.71269e-06 -6.72649e-06
-1.70743e-06 1.68424e-06 -2.93029e-06
-7.62253e-06 5.08458e-06 -9.49122e-06
8.78286e-07 4.71902e-07 -8.00504e-07
2.16739e-06 9.17613e-07 -2.04376e-06
1.29884e-06 9.20006e-07 -1.02988e-06
1.00522e-06 1.81856e-06 -3.68284e-06
5.48666e-07 3.30334e-07 -5.2332e-07
-1.44448e-07 1.38195e-07 -2.06268e-07
-6.51368e-07 8.23694e-07 -1.2965e-06
0.00109909 5.67205e-05 -0.000349618
-2.69326e-07 1.0494e-07 -1.53149e-07
0.000300951 0.000619205 -0.000521511
7.78052e-07 2.54478e-07 -6.06263e-07
3.00314e-07 3.5933e-08 -5.42253e-08
9.77705e-07 8.56644e-07 -1.74317e-06
1.78947e-06 1.53759e-06 -3.29355e-06
-5.46298e-07 9.60484e-08 -3.76514e-07
1.86853e-08 1.79518e-07 -4.14257e-07
6.15647e-08 7.70253e-08 -1.69703e-07
1.25598e-06 2.59653e-06 -4.76206e-06
0.000877607 -0.000260445 4.86707e-05
-3.75621e-07 3.38167e-08 -5.68928e-08
0.00193321 -0.000590647 0.000657815
1.05921e-07 1.1849e-06 -2.18706e-06
8.93654e-07 1.68469e-07 -4.06794e-07
3.46408e-07 2.27875e-06 -3.61352e-06
-2.66979e-06 6.84767e-06 -1.0695e-05
-3.58399e-07 3.19645e-06 -5.41209e-06
5.96355e-07 9.10424e-07 -9.8973e-07
-1.87968e-07 2.24384e-08 -8.2707e-08
5.75183e-07 2.22976e-07 -2.0309e-07
2.47735e-06 1.64038e-06 -3.28394e-06
-9.55424e-07 1.8078e-06 -3.26253e-06
8.34764e-07 2.13621e-06 -3.20035e-06
-4.6799e-07 1.35377e-07 -2.69818e-07
7.26889e-07 1.58865e-07 -2.61801e-07
2.09124e-07 2.35947e-07 -2.25133e-07
1.07696e-06 7.21272e-07 -1.64307e-06
-1.7904e-07 3.15579e-07 -4.95968e-07
0.00143742 -0.000278159 -0.000514965
-2.24918e-07 7.69942e-07 -1.28799e-06
-1.7503e-07 1.87937e-08 -3.24998e-08
1.20645e-06 9.92505e-07 -1.99811e-06
2.12924e-07 1.0335e-06 -2.0191e-06
1.51503e-07 5.37067e-07 -1.07664e-06
8.61356e-07 5.21371e-07 -1.00961e-06
-7.78257e-07 2.39167e-06 -4.33719e-06
-6.2894e-07 1.91953e-07 -4.63841e-07
0.00122497 0.000318365 0.000256746
-2.57437e-07 -6.73694e-09 -1.65103e-08
0.00121501 -0.000187231 -0.00024988
0.0016639 -0.000266851 -0.000502543
0.00102555 0.000821654 -0.000554101
-6.62134e-07 1.03633e-07 -2.29329e-07
3.68845e-07 3.14323e-08 -7.18163e-08
2.21565e-07 8.46681e-07 -1.67954e-06
1.13016e-06 4.49593e-07 -1.37335e-06
1.50452e-06 8.38173e-07 -1.46078e-06
7.76218e-06 6.76439e-06 -1.08896e-05
2.51036e-07 1.28072e-06 -1.79263e-06
2.36434e-07 1.96928e-06 -2.77709e-06
-1.87531e-07 1.20891e-06 -2.00859e-06
0.00181006 0.000841542 -1.88881e-05
-3.64724e-07 1.97251e-06 -3.49076e-06
-1.16076e-06 1.16965e-06 -1.75333e-06
-1.73219e-06 1.698e-06 -2.99818e-06
-1.26895e-07 8.68045e-08 -1.17923e-07
-1.2806e-06 2.25368e-06 -3.91061e-06
-2.18225e-07 9.80938e-08 -1.30262e-07
-2.46107e-07 1.17319e-06 -1.73242e-06
-2.85066e-06 2.05802e-06 -3.62246e-06
1.69921e-06 2.23121e-06 -3.36401e-06
2.4109e-06 2.24574e-06 -3.26029e-06
1.94066e-07 8.54715e-09 -3.06034e-08
-2.21053e-06 9.70247e-07 -1.97041e-06
-3.53815e-06 1.43093e-06 -2.88405e-06
-2.8734e-06 1.38876e-06 -3.0346e-06
0.000578383 0.000387383 -0.000521169
-1.78171e-07 1.32527e-06 -2.09207e-06
3.02181e-07 1.00372e-07 -2.12638e-07
-1.03256e-06 1.04641e-06 -1.89199e-06
-1.53928e-06 3.03159e-06 -5.48326e-06
-2.52744e-06 9.88628e-07 -1.78036e-06
1.12691e-06 8.93283e-07 -1.23624e-06
1.22983e-06 2.7256e-06 -4.34566e-06
1.13044e-06 2.63152e-06 -4.55784e-06
2.70027e-07 5.49541e-08 -7.07247e-08
0.00144152 0.000144243 0.000438813
1.50195e-07 3.3552e-08 -9.65964e-09
-1.49159e-07 1.00479e-06 -1.83638e-06
-2.53659e-06 7.72839e-07 -1.61695e-06
0.00167907 0.000453236 -0.00083197
1.11607e-07 2.33699e-08 -3.3452e-08
-1.7429e-06 8.13608e-07 -1.29064e-06
-1.06066e-07 7.47599e-07 -1.33147e-06
9.62894e-09 1.33866e-06 -2.48375e-06
1.82823e-06 7.79767e-07 -1.29593e-06
1.60009e-06 9.81175e-07 -1.90099e-06
0.00129749 -0.000181132 0.000436154
-1.10074e-08 2.538e-09 -2.16298e-08
0.00143215 -0.00029227 0.00044549
2.41084e-08 1.00587e-06 -1.49478e-06
-8.42782e-07 1.02491e-06 -1.87593e-06
-2.80845e-06 2.59308e-06 -4.77767e-06
2.14849e-06 1.96662e-06 -3.75068e-06
1.42537e-06 8.31231e-07 -1.34501e-06
9.33703e-07 8.4906e-07 -1.26619e-06
1.15423e-06 1.54114e-06 -2.45834e-06
0.00103013 0.000572306 -0.000796472
2.55183e-06 1.31919e-06 -1.89316e-06
2.28574e-07 3.75341e-07 -4.00827e-07
-3.94055e-06 4.44207e-06 -7.80014e-06
-8.72571e-07 1.8099e-06 -3.08975e-06
-1.2091e-07 1.69895e-07 -2.55232e-07
-7.27442e-07 1.79503e-07 -2.50515e-07
1.34955e-08 7.24827e-09 -1.32633e-08
0.00224544 0.000674627 4.28289e-06
1.2855e-07 7.74858e-07 -1.39959e-06
-1.22346e-06 7.55953e-07 -1.25952e-06
5.77589e-07 7.55295e-07 -1.44323e-06
0.00149676 5.92477e-05 -0.000681532
0.000968983 0.000843586 0.0018216
7.68485e-07 5.02003e-07 -1.0563e-06
9.81944e-07 1.91052e-06 -3.25768e-06
4.15945e-07 2.3539e-07 -2.42455e-07
5.61155e-08 9.55315e-08 -1.93036e-07
-6.47692e-07 8.39451e-07 -1.30213e-06
4.65659e-07 2.62041e-07 -6.09441e-07
4.21388e-07 1.21902e-06 -2.26502e-06
6.84678e-07 8.36472e-07 -1.59388e-06
-1.2345e-06 1.00115e-06 -1.7409e-06
-8.16815e-07 1.0944e-07 -3.67576e-07
-1.81629e-06 7.85052e-07 -1.54216e-06
-1.12646e-06 5.68462e-07 -1.02008e-06
-1.06271e-06 3.49992e-07 -7.84486e-07
-1.69434e-06 1.50485e-06 -2.83766e-06
-1.80417e-07 7.92122e-07 -1.16691e-06
7.12897e-07 1.52758e-07 -4.06923e-07
9.54725e-07 2.92232e-07 -8.25761e-07
4.33453e-07 1.31982e-07 -3.30324e-07
1.2009e-07 6.88629e-07 -1.27718e-06
4.81273e-07 1.54045e-07 -1.31829e-07
-7.7767e-07 1.54239e-06 -2.71717e-06
0.00185348 -7.986e-05 0.000308655
1.34936e-06 1.8828e-06 -3.34271e-06
-1.66423e-06 1.41806e-06 -2.48227e-06
-9.21892e-07 1.9495e-06 -3.17725e-06
0.00141138 -0.000216998 -0.000279894
2.17237e-07 7.93067e-08 -1.59766e-07
1.23324e-06 8.16221e-07 -1.19358e-06
2.18234e-06 1.51945e-06 -2.59989e-06
1.22422e-06 1.00654e-06 -1.82574e-06
-5.09733e-07 6.50345e-07 -1.00218e-06
-7.34839e-07 9.46057e-07 -1.64007e-06
-7.49178e-07 4.9987e-07 -7.51051e-07
-2.46237e-07 7.5492e-07 -1.27766e-06
4.73731e-07 7.41266e-08 -3.44703e-07
-8.77251e-07 2.4959e-07 -6.02881e-07
1.87215e-07 1.4217e-07 -1.13338e-07
3.29228e-07 1.80019e-07 -1.56417e-07
-8.88647e-07 1.20075e-06 -2.05288e-06
-1.72876e-06 4.36537e-07 -9.64034e-07
-2.02122e-07 1.20395e-06 -2.08847e-06
-1.19493e-06 5.47042e-07 -1.1368e-06
-1.54867e-06 1.081e-06 -1.89528e-06
0.00158747 -0.000379527 -0.00013575
-1.59855e-07 2.47796e-08 -4.24099e-08
0.00134652 -0.000617186 8.20609e-05
-9.72564e-07 2.17745e-07 -4.66541e-07
-1.29677e-06 3.96783e-07 -6.58038e-07
-1.33189e-06 8.41077e-07 -1.77468e-06
-1.03255e-06 6.6572e-07 -1.23554e-06
4.53205e-07 7.2546e-07 -8.74285e-07
6.93632e-07 5.81832e-07 -7.00054e-07
-1.49339e-07 1.66057e-08 -9.04948e-09
-8.40521e-07 9.50582e-07 -1.56627e-06
5.07268e-07 1.21434e-06 -2.16032e-06
-9.00693e-07 9.38853e-07 -1.56593e-06
1.17375e-06 5.15013e-07 -1.00547e-06
-1.49579e-08 1.23242e-07 -1.48346e-07
1.04545e-06 1.22191e-06 -2.03977e-06
-4.81753e-08 1.52791e-07 -3.33961e-07
-8.95064e-07 4.50815e-07 -9.10503e-07
-2.07612e-06 1.29084e-06 -2.49418e-06
-1.24179e-07 4.26325e-07 -7.27296e-07
2.55427e-07 1.53827e-06 -2.70023e-06
-8.57354e-07 3.855e-07 -6.11402e-07
8.00019e-07 1.10793e-06 -1.5622e-06
-3.97966e-07 1.32819e-07 -1.67839e-07
0.00162868 0.00027534 0.000773176
5.66223e-07 2.42101e-07 -6.13985e-07
8.19527e-07 4.90101e-07 -6.26275e-07
-5.31376e-07 4.1844e-07 -7.71123e-07
-4.64108e-07 2.92258e-07 -3.88303e-07
4.16344e-07 3.53466e-07 -3.29523e-07
2.54758e-07 3.81284e-07 -7.91518e-07
0.00205795 -0.00142599 9.51658e-05
0.00181632 0.000694956 -0.00117219
-9.42709e-07 2.46147e-07 -6.90961e-07
-1.1787e-06 8.32658e-07 -1.59001e-06
7.05753e-08 3.47379e-07 -4.50692e-07
-1.96961e-07 1.16419e-06 -2.08214e-06
-3.76461e-07 3.82144e-07 -7.43626e-07
1.06332e-06 4.83723e-07 -1.11924e-06
-1.16443e-06 1.34414e-06 -2.38357e-06
0.000888217 0.000720557 6.38272e-05
-1.66917e-06 9.27789e-07 -1.78024e-06
-8.1872e-08 9.75049e-08 -1.17506e-07
0.000915944 -4.74038e-05 -0.000971878
1.6178e-07 1.72318e-07 -3.29431e-07
0.00213238 -0.00111271 0.000137349
-1.41441e-06 1.22955e-06 -2.2644e-06
-9.59977e-07 7.36894e-07 -1.3598e-06
0.00075778 -0.00108262 0.000153281
-7.02084e-07 3.9039e-07 -7.19463e-07
0.000774391 0.00121077 -4.03701e-05
6.5879e-08 4.37549e-07 -6.6664e-07
-1.24503e-07 3.97171e-07 -7.01244e-07
-1.09181e-06 2.13263e-07 -5.93649e-07
2.26623e-07 1.38266e-06 -2.33255e-06
-1.34707e-07 1.87269e-07 -2.54503e-07
0.000644269 -0.000178222 0.000793167
2.99759e-07 4.78726e-07 -7.64965e-07
3.9913e-07 1.51163e-07 -2.31353e-07
3.16967e-07 4.3469e-07 -6.6926e-07
0.000392576 -0.000471617 0.00103473
-1.42333e-06 8.30821e-07 -1.50113e-06
-1.38345e-06 1.05736e-06 -1.91842e-06
1.97995e-07 4.47254e-07 -6.88874e-07
-4.25778e-07 3.97175e-07 -7.14194e-07
-8.21005e-08 3.30931e-08 -1.7727e-08
0.000970559 0.000587744 -1.44479e-05
0.000629889 -0.000974375 0.000222708
0.000662659 -0.000988559 0.000156282
-1.51877e-06 7.96787e-07 -1.51459e-06
-3.39291e-07 3.4272e-07 -6.0385e-07
-6.25542e-07 2.63111e-07 -3.348e-07
3.04066e-07 4.20625e-07 -7.9303e-07
0.000806605 0.000447216 0.000177436
0.000408943 0.000351549 -0.000517739
1.24374e-07 3.01279e-08 -2.02171e-08
1.90316e-07 2.34687e-08 -2.75334e-08
1.31714e-07 8.63003e-07 -1.57474e-06
1.03106e-07 2.97413e-08 -3.70432e-08
0.000615715 -0.000161523 -0.000320376
2.40248e-07 1.02542e-06 -1.89053e-06
-5.40317e-07 1.92548e-07 -3.62379e-07
-5.00389e-07 1.43471e-06 -2.22834e-06
1.74667e-08 1.04304e-08 -4.341e-08
5.07131e-07 8.49924e-07 -1.57076e-06
3.62799e-07 4.06443e-07 -7.37829e-07
0.00036825 -0.00045373 0.000780902