# vtk DataFile Version 4.2
vtk output
ASCII
DATASET UNSTRUCTURED_GRID

POINTS 343 double
0.00161162 0.00421625 -2.06329e-05
0.00311695 0.00502401 0.00213524
0 0.00419538 0.00112517
0.00277461 0.00199113 0.00190658
0.00744691 0.0025112 0.00493915
0.00744375 0.00393214 0.00630363
0.010975 0.00492896 0.00486255
0.00896124 0.00497463 0.00358081
0.00984637 0.00342691 0.00678987
0.0071799 0.00509052 0.00490977
0.00602024 0.00120214 0.00992089
0.00760625 0.00218677 0.00780698
0.00603982 7.78049e-05 0.00824062
0.00289047 0.00204016 0.00799669
0.00616788 0.00261733 0.0099186
0.0100054 0.00658424 0.00682028
0.00922657 0.00630931 0.00506792
0.00324945 0.00222769 0.00510481
0 0.00143586 0.00417514
0.00228974 0.00349617 0.00400771
0.00985209 0.00333311 0.00304072
0.0111646 0.00237385 0.00492517
0 0.00270918 0.00154168
0.00599686 0.00151369 -7.19071e-05
0.00721832 0.00228963 0.00210884
0.00570481 0.00360518 0.00153279
0.00193518 2.43917e-05 0.00403554
0.00603624 7.8378e-05 0.00161346
0.00377285 0.0070023 -4.60876e-05
0.00277801 0.00808951 0.00190887
0.00587787 0.00632753 0.00157237
0.0115067 0.00814263 0.00784982
0.0114657 0.00497644 0.00787542
0.0120685 0.00624813 0.00579602
0.0143706 0.00901846 0.00401689
0.0108968 0.00778509 0.00482802
0.0123141 0.0101491 0.00401501
0.0114758 0.00812916 0.00187677
0.00508581 0.0031049 0.00689553
0.00638318 0.00374828 0.00824162
0.00560574 0.00167853 0.00589861
0.00718955 0.00776469 0.00758477
0.00285099 0.00804543 0.00795345
0.00405208 0.0100501 0.0070754
0.0056217 0.00847421 0.00588634
0 0.00695361 0.00262895
0.00236171 0.00627046 0.00405758
0 0.0040177 0.00850214
0.00332186 0.00502916 0.00761942
0.00205559 0.00420082 0.00997387
0.0103152 0.00725822 0.00986378
0.00879746 0.00609056 0.00830407
0.0029416 0.00798032 0.00470403
0.00436911 0.00700135 0.00641266
0.00227618 0.00610831 0.00589685
0.0143654 0.00598451 0.0081268
0 0.00718191 0.00711644
0.00227359 0.00580396 -2.88796e-05
0 0.00577432 0.00158701
0.0143669 0.00735534 0.00692993
0.0041201 0.00340359 0.00994547
0.0143638 0.00162286 0.00399958
0.0115903 0.00211094 0.00183959
0.0120849 0.00367426 0.00384971
0.00536714 0.0017228 0.0040605
0.00216025 0.0100277 0.00578713
0.00404829 5.24467e-05 0.00707706
0.00879299 0.00429262 0.00826261
0.0143667 0.0074495 0.00401971
0.0123055 0.000156672 0.00401649
0.0048127 0.00293605 -5.80512e-05
0.00388331 0.00159107 0.00994883
0.00406357 5.28821e-05 0.00278068
0.00689871 0.00528742 0.00746587
0.00454322 0.00320756 0.00310933
0 0.00849157 0.00581511
0.00700406 0.00376621 0.00369846
0.00220897 0.0027378 -2.79711e-05
0.00832998 0.0084274 0.00988953
0.00859192 0.0101045 0.00839434
0.00604506 0.0100743 0.00823945
0.00576562 0.00857479 0.00992322
0.0143682 0.00866063 0.00563198
0.00452029 0.00689442 0.0030925
0 0.00748929 0.00137438
0.00196829 0.00751499 -2.51576e-05
0 0.00287343 0.00335182
0 0.00580816 0.00831736
0 0.00429792 0.00253898
0.00364322 0.00434519 -4.4484e-05
0.00205513 0.00584565 0.00997378
0.00743905 0.00656937 0.00630577
0.00517436 0.00657791 0.00816707
0.00998572 0.002754 0.00986842
0.0115304 0.00210513 0.00788691
0.0100186 0.000128612 0.00295919
0.00865149 0.0017758 0.00350587
0.0143644 0.00305658 0.00317783
0 0.00140616 0.00256446
0.00915925 0.00834066 0.00630464
0.00836411 0.00154394 -9.94164e-05
0.00867754 0.00366301 0.00149792
0.00452695 0.0100559 0.00576665
0.0123049 0.0101493 0.00567693
0.00367999 0.00145406 -4.48111e-05
0.00858931 0.000111015 0.0013898
0.00902839 0.0083994 0.00350461
0.0122971 0.00015659 0.0056783
0.00891701 0.00178739 0.00625272
0.00201254 0.0025896 0.0099743
0.0102355 0.00730867 -0.000122403
0.00742579 0.00778309 0.00207658
0.00854383 0.00620106 0.00149773
0 0.00686719 0.00578184
0.0143668 0.00159383 0.00239352
0.00254422 0.00364301 0.00637546
0.014372 0.00865565 0.00245062
0.012092 0.00633886 0.00398347
0.00859702 0.0101052 0.001388
0.0100144 0.000128341 0.00680001
0.0143628 0.00162204 0.00563748
0.0120682 0.00372533 0.00590821
0.00215963 2.72084e-05 0.00578794
0 0.0013659 0.00748679
0.00196 2.47605e-05 0.00750451
0.0143657 0.00704201 0.00559816
0.00836309 0.00859547 -0.000100907
0 0.0075208 0.00859127
0.00195544 0.00751153 0.00997508
0.00607662 0.00828165 0.00355073
0.0123532 0.0101484 0.00735249
0.0143705 0.00879864 0.00733776
0.0082915 0.00169305 0.00989074
0.0104304 0.00431885 0.00986219
0 0.0057735 0.00666667
0.00196102 0.0100251 0.00750358
0 0.00863025 0.00752641
0.0123466 0.000158699 0.00235769
0.0143682 0.00712948 0.00245643
0.0121631 0.00649219 0.00201608
0.0122316 0.00597484 0.00983937
0.0107613 0.00151171 0.00985866
0.0123451 0.000158289 0.00735443
0.0143644 0.00155247 0.00729977
0 0.00143551 0.00581971
0.00858395 0.0001104 0.00839544
0.00604921 7.8308e-05 0.00332432
0.0114085 0.00485131 0.00189696
0.0143658 0.00447835 0.00236806
0.00607017 0.0100744 0.00658842
0.00406626 0.01005 0.00277924
0.00188032 2.39543e-05 0.00239428
0 0.00727418 0.00419576
0.0143644 0.00595039 0.00648088
0.0100268 0.0101219 0.00295718
0.010791 0.00876736 0.00985733
0 0.00574334 0.00336387
0 0.0043297 0.00416652
0.00986982 0.00590655 0.0098697
0.0143625 0.0032047 0.00673075
0.00606433 7.83875e-05 0.00659014
0.00355258 0.0100439 0.00856536
0.0107644 0.00150507 -0.000127153
0.00829354 0.00676967 0.0098902
0.0143694 0.00769314 0.00839903
0.0123762 0.00770353 0.00983686
0.00994195 0.00314971 -0.000117692
0.00483035 0.00580579 -5.84557e-05
0.0108283 0.00876331 -0.000128892
0.0108105 0.0101311 0.00125607
0.00831341 0.00697126 -9.98687e-05
0.010027 0.0064962 0.00290976
0.0108026 0.000139881 0.00125727
0.00413607 0.00505088 0.00994541
0.00621546 0.0059114 0.00991758
0.00621405 0.00424464 0.00991778
0.0108064 0.0101297 0.00847543
0.00354909 4.56906e-05 0.00856665
0.0143657 0.00592112 0.00318992
0 0.00302218 0.00691532
0.0143643 0.0041988 0.00831038
0.0122276 0.00417286 -0.000143527
0.0143684 0.00289286 0.00137577
0 0.00244495 0.00857025
0.00350611 0.00861402 0.00995371
0.010798 0.0001391 0.0084769
0.0121991 0.00277795 0.00983973
0.0127216 0.0043533 0.00983225
0.0081487 0.0100994 0.00572943
0.00745088 0.00767654 0.00493812
0.00810995 0.0100988 0.00411253
0.0100223 0.0101218 0.00679854
0.00433519 0.0069703 0.00994265
0.00598554 0.00440706 -7.17245e-05
0.00406694 5.24754e-05 0.00435357
0.00452275 5.86404e-05 0.00576885
0.01437 0.00437656 0.000960322
0.00522474 0.00840335 0.00152283
0.0143638 0.0045095 0.00398988
0.00958625 0.00589357 -0.000114622
0.0123548 0.0101493 0.0023562
0 0.00848692 0.00262374
0.00193553 0.0100251 0.00403471
0 0.00885053 0.00419359
0.00602718 0.00892572 -7.3263e-05
0.00604139 0.0100741 0.0016121
0.00718223 0.00488331 0.00229027
0.010381 0.00465305 -0.000123009
0.00810228 0.000104368 0.00411507
0.00814147 0.000104914 0.00573142
0.00188032 0.0100241 0.00239331
0.0123248 0.00260325 -0.000144974
0.0143629 0.00470154 0.007033
0.0102291 0.0101244 0.00487112
0.00824767 0.00346816 0.00989093
0.00352611 4.61385e-05 0.00131242
0.0143653 0.00262936 0.0083782
0.00343448 0.00483517 0.00495616
0.00838491 0.00443718 -9.97395e-05
0.0119636 0.00595652 -0.000140521
0.00787288 0.0100961 0.00711904
0.0143624 0.00450983 0.00565138
0.00776617 0.0100949 0.00267837
0.0102213 0.000130902 0.00487278
0.00406976 0.0100502 0.0043515
0 0.00452174 0.00721958
0.00649124 0.00730085 0.00991378
0.00786566 0.00010137 0.00712018
0.0051721 0.00514027 0.00353055
0.0061066 0.0100746 0.00492979
0.00610063 7.91148e-05 0.00493236
0.00526813 0.00528386 0.00610792
0 0.005744 0.00499998
0 0.00433013 0.00583333
0.00718627 0.0058356 -8.61113e-05
0.00716157 0.00642984 0.00346378
0.00775879 0.000100122 0.0026803
0.0143643 0.00592045 0.00482006
0.00529748 0.00647571 0.00477653
0.00824955 0.0051031 0.00989083
0.0143699 0.00595119 0.00142035
0 0.00666667 0
0.0123595 0.007672 -0.000145304
0.00478565 6.27973e-05 -5.76252e-05
0 0.01 0.00666667
0.00718368 0.0100869 0.00990497
0 0.00288419 0.00499914
0.0143726 0.00766294 0.00120789
0.014376 0.00684137 -0.000164002
0 0.005 0.01
0.00718325 0.002977 -8.56603e-05
0 0.005 0
0.01437 0.000191145 0.00316034
0.0143776 0.0101637 0.00647996
0.0060291 0.00735049 -7.28897e-05
0.0143629 0.00306752 0.00481998
0.00718397 9.40683e-05 -8.60879e-05
0 0 0.00666667
0.00545193 0.00368638 0.00515733
0.00717733 9.23471e-05 0.00990613
0.0143681 0.000190598 0.00648216
0 0 0.005
0.0126332 0.0101514 0.00106998
0.0143774 0.00894846 0.00105421
0.0143683 0.000190563 0.0048207
0.0143748 0.00517948 -0.000162839
0.0017477 0.00124254 -2.21324e-05
0 0.00122008 0.00122008
0 0.00333333 0.01
0 0.00666667 0.01
0.0126329 0.00893233 -0.000148486
0.014379 0.0101632 0.00315783
0.00605465 0.010074 0.00332209
0.0143733 0.00684084 0.00980282
0 0.00333333 0
0 0.00122008 0.00877992
0.00174591 2.20748e-05 0.00875825
0.00174575 0.00124208 0.0099777
0.0126283 0.01015 0.00861383
0.00174672 0.00880202 0.00997759
0 0.00877992 0.00877992
0.0143736 0.00894713 0.00858737
0.00959158 0.0101164 -0.000116073
0.0143711 0.00140906 0.00105427
0.00174718 0.0100221 0.00875759
0.0126273 0.00893024 0.00983263
0.0143718 0.00517805 0.00980342
0 0 0.00333333
0.00958311 0.000124886 -0.000114105
0.0126244 0.000164087 0.0010704
0.00173538 2.2283e-05 0.00118979
0 0.00877992 0.00122008
0.00174699 0.00880265 -2.23973e-05
0.00173516 0.0100221 0.00118889
0.0143674 0.00140757 0.00858813
0.0126212 0.00138265 0.00983372
0.00957572 0.000123277 0.0098746
0.0126268 0.00138447 -0.000148009
0.0126201 0.000162903 0.00861541
0.0143746 0.00351685 -0.000162543
0.00478476 0.0100581 0.00993654
0.00352796 0.0100436 0.0013113
0.00958414 0.0101151 0.00987356
0.0143704 0.00351481 0.00980325
0 0.01 0.005
0.00376593 0.00853482 -4.62919e-05
0.0143774 0.0101634 0.00482025
0 0.01 0.00333333
0 0.00166667 0
0.0143734 0.000191014 0.0014992
0 0.00166667 0.01
0 0.00833333 0
0.0143804 0.00850424 -0.000164614
0.0143699 0.000190224 0.00814402
0.0143827 0.0101652 0.00149899
0.0143792 0.0101639 0.00814231
0.00238862 0.0100292 0.00996897
0 0.01 0.00833333
0.0119938 0.0101437 -0.000142414
0.0119849 0.000156873 -0.000141545
0.0119788 0.000155002 0.00984303
0.0119873 0.0101419 0.00984176
0 0 0.00833333
0.0143769 0.00850123 0.00980377
0.00238914 3.14899e-05 -2.97243e-05
0 0 0.00166667
0.00478901 0.010059 -5.87384e-05
0.0143713 0.00185364 0.0098045
0.0143758 0.00185571 -0.000163366
0.0023861 3.05535e-05 0.0099696
0.00238939 0.0100299 -3.02926e-05
0 0.01 0.00166667
0.0143825 0.0101656 0.00980517
0 0 0.01
0.0143874 0.0101661 -0.000165903
0.0143737 0.000189044 0.0098071
0 0.01 0.01
0.0143788 0.000190751 -0.000164947
0 0.01 0
0 0 0
0.00719013 0.0100877 -8.77638e-05
0.00478038 6.15468e-05 0.00993728
0 0.00833333 0.01

CELLS 343 686
1 0
1 1
1 2
1 3
1 4
1 5
1 6
1 7
1 8
1 9
1 10
1 11
1 12
1 13
1 14
1 15
1 16
1 17
1 18
1 19
1 20
1 21
1 22
1 23
1 24
1 25
1 26
1 27
1 28
1 29
1 30
1 31
1 32
1 33
1 34
1 35
1 36
1 37
1 38
1 39
1 40
1 41
1 42
1 43
1 44
1 45
1 46
1 47
1 48
1 49
1 50
1 51
1 52
1 53
1 54
1 55
1 56
1 57
1 58
1 59
1 60
1 61
1 62
1 63
1 64
1 65
1 66
1 67
1 68
1 69
1 70
1 71
1 72
1 73
1 74
1 75
1 76
1 77
1 78
1 79
1 80
1 81
1 82
1 83
1 84
1 85
1 86
1 87
1 88
1 89
1 90
1 91
1 92
1 93
1 94
1 95
1 96
1 97
1 98
1 99
1 100
1 101
1 102
1 103
1 104
1 105
1 106
1 107
1 108
1 109
1 110
1 111
1 112
1 113
1 114
1 115
1 116
1 117
1 118
1 119
1 120
1 121
1 122
1 123
1 124
1 125
1 126
1 127
1 128
1 129
1 130
1 131
1 132
1 133
1 134
1 135
1 136
1 137
1 138
1 139
1 140
1 141
1 142
1 143
1 144
1 145
1 146
1 147
1 148
1 149
1 150
1 151
1 152
1 153
1 154
1 155
1 156
1 157
1 158
1 159
1 160
1 161
1 162
1 163
1 164
1 165
1 166
1 167
1 168
1 169
1 170
1 171
1 172
1 173
1 174
1 175
1 176
1 177
1 178
1 179
1 180
1 181
1 182
1 183
1 184
1 185
1 186
1 187
1 188
1 189
1 190
1 191
1 192
1 193
1 194
1 195
1 196
1 197
1 198
1 199
1 200
1 201
1 202
1 203
1 204
1 205
1 206
1 207
1 208
1 209
1 210
1 211
1 212
1 213
1 214
1 215
1 216
1 217
1 218
1 219
1 220
1 221
1 222
1 223
1 224
1 225
1 226
1 227
1 228
1 229
1 230
1 231
1 232
1 233
1 234
1 235
1 236
1 237
1 238
1 239
1 240
1 241
1 242
1 243
1 244
1 245
1 246
1 247
1 248
1 249
1 250
1 251
1 252
1 253
1 254
1 255
1 256
1 257
1 258
1 259
1 260
1 261
1 262
1 263
1 264
1 265
1 266
1 267
1 268
1 269
1 270
1 271
1 272
1 273
1 274
1 275
1 276
1 277
1 278
1 279
1 280
1 281
1 282
1 283
1 284
1 285
1 286
1 287
1 288
1 289
1 290
1 291
1 292
1 293
1 294
1 295
1 296
1 297
1 298
1 299
1 300
1 301
1 302
1 303
1 304
1 305
1 306
1 307
1 308
1 309
1 310
1 311
1 312
1 313
1 314
1 315
1 316
1 317
1 318
1 319
1 320
1 321
1 322
1 323
1 324
1 325
1 326
1 327
1 328
1 329
1 330
1 331
1 332
1 333
1 334
1 335
1 336
1 337
1 338
1 339
1 340
1 341
1 342

CELL_TYPES 343
1
1
1
1
1
1
1
1
1
1
1
1
1
1
1
1
1
1
1
1
1
1
1
1
1
1
1
1
1
1
1
1
1
1
1
1
1
1
1
1
1
1
1
1
1
1
1
1
1
1
1
1
1
1
1
1
1
1
1
1
1
1
1
1
1
1
1
1
1
1
1
1
1
1
1
1
1
1
1
1
1
1
1
1
1
1
1
1
1
1
1
1
1
1
1
1
1
1
1
1
1
1
1
1
1
1
1
1
1
1
1
1
1
1
1
1
1
1
1
1
1
1
1
1
1
1
1
1
1
1
1
1
1
1
1
1
1
1
1
1
1
1
1
1
1
1
1
1
1
1
1
1
1
1
1
1
1
1
1
1
1
1
1
1
1
1
1
1
1
1
1
1
1
1
1
1
1
1
1
1
1
1
1
1
1
1
1
1
1
1
1
1
1
1
1
1
1
1
1
1
1
1
1
1
1
1
1
1
1
1
1
1
1
1
1
1
1
1
1
1
1
1
1
1
1
1
1
1
1
1
1
1
1
1
1
1
1
1
1
1
1
1
1
1
1
1
1
1
1
1
1
1
1
1
1
1
1
1
1
1
1
1
1
1
1
1
1
1
1
1
1
1
1
1
1
1
1
1
1
1
1
1
1
1
1
1
1
1
1
1
1
1
1
1
1
1
1
1
1
1
1
1
1
1
1
1
1
1
1
1
1
1
1
1
1
1
1
1
1
1
1
1
1
1
1
1
1
1
1
1
1
1
1
1
1
1
1
1
1
1
1
1
1

POINT_DATA 343
FIELD FieldData 8

NodeID_(#) 1 343 int
0
1
2
3
4
5
6
7
8
9
10
11
12
13
14
15
16
17
18
19
20
21
22
23
24
25
26
27
28
29
30
31
32
33
34
35
36
37
38
39
40
41
42
43
44
45
46
47
48
49
50
51
52
53
54
55
56
57
58
59
60
61
62
63
64
65
66
67
68
69
70
71
72
73
74
75
76
77
78
79
80
81
82
83
84
85
86
87
88
89
90
91
92
93
94
95
96
97
98
99
100
101
102
103
104
105
106
107
108
109
110
111
112
113
114
115
116
117
118
119
120
121
122
123
124
125
126
127
128
129
130
131
132
133
134
135
136
137
138
139
140
141
142
143
144
145
146
147
148
149
150
151
152
153
154
155
156
157
158
159
160
161
162
163
164
165
166
167
168
169
170
171
172
173
174
175
176
177
178
179
180
181
182
183
184
185
186
187
188
189
190
191
192
193
194
195
196
197
198
199
200
201
202
203
204
205
206
207
208
209
210
211
212
213
214
215
216
217
218
219
220
221
222
223
224
225
226
227
228
229
230
231
232
233
234
235
236
237
238
239
240
241
242
243
244
245
246
247
248
249
250
251
252
253
254
255
256
257
258
259
260
261
262
263
264
265
266
267
268
269
270
271
272
273
274
275
276
277
278
279
280
281
282
283
284
285
286
287
288
289
290
291
292
293
294
295
296
297
298
299
300
301
302
303
304
305
306
307
308
309
310
311
312
313
314
315
316
317
318
319
320
321
322
323
324
325
326
327
328
329
330
331
332
333
334
335
336
337
338
339
340
341
342

Component_(#) 1 343 int
0
0
0
0
0
0
0
0
0
0
0
0
0
0
0
0
0
0
0
0
0
0
0
0
0
0
0
0
0
0
0
0
0
0
0
0
0
0
0
0
0
0
0
0
0
0
0
0
0
0
0
0
0
0
0
0
0
0
0
0
0
0
0
0
0
0
0
0
0
0
0
0
0
0
0
0
0
0
0
0
0
0
0
0
0
0
0
0
0
0
0
0
0
0
0
0
0
0
0
0
0
0
0
0
0
0
0
0
0
0
0
0
0
0
0
0
0
0
0
0
0
0
0
0
0
0
0
0
0
0
0
0
0
0
0
0
0
0
0
0
0
0
0
0
0
0
0
0
0
0
0
0
0
0
0
0
0
0
0
0
0
0
0
0
0
0
0
0
0
0
0
0
0
0
0
0
0
0
0
0
0
0
0
0
0
0
0
0
0
0
0
0
0
0
0
0
0
0
0
0
0
0
0
0
0
0
0
0
0
0
0
0
0
0
0
0
0
0
0
0
0
0
0
0
0
0
0
0
0
0
0
0
0
0
0
0
0
0
0
0
0
0
0
0
0
0
0
0
0
0
0
0
0
0
0
0
0
0
0
0
0
0
0
0
0
0
0
0
0
0
0
0
0
0
0
0
0
0
0
0
0
0
0
0
0
0
0
0
0
0
0
0
0
0
0
0
0
0
0
0
0
0
0
0
0
0
0
0
0
0
0
0
0
0
0
0
0
0
0
0
0
0
0
0
0
0
0
0
0
0
0
0
0
0
0
0
0
0
0
0
0
0
0

NodalMass_(kg) 1 343 double
3.15563e-06
1.41304e-05
2.20912e-06
1.71484e-05
8.42e-06
9.09306e-06
1.01179e-05
7.52198e-06
6.81096e-06
5.58223e-06
3.10888e-06
1.07575e-05
4.87011e-06
1.64955e-05
3.0246e-06
8.05984e-06
6.703e-06
1.0877e-05
4.18978e-06
8.16106e-06
6.14143e-06
1.17902e-05
2.23114e-06
4.25176e-06
1.09915e-05
7.41467e-06
4.21871e-06
3.92484e-06
3.08766e-06
1.31268e-05
7.72627e-06
1.65404e-05
1.19037e-05
7.97564e-06
3.81683e-06
1.11001e-05
3.81317e-06
1.39137e-05
6.37414e-06
8.00975e-06
7.6712e-06
1.21135e-05
1.6399e-05
2.78633e-06
8.93599e-06
2.58087e-06
7.57362e-06
4.23241e-06
1.31286e-05
3.80168e-06
2.7746e-06
7.16776e-06
1.21307e-05
5.11765e-06
8.19728e-06
4.58094e-06
2.79503e-06
3.26126e-06
4.12443e-06
2.11915e-06
3.35177e-06
3.61669e-06
1.56838e-05
7.33679e-06
8.24695e-06
5.00369e-06
2.82625e-06
7.20276e-06
3.26815e-06
4.18751e-06
2.02785e-06
2.42152e-06
3.11835e-06
5.97459e-06
5.87101e-06
4.09374e-06
5.45463e-06
2.28825e-06
4.49759e-06
4.38192e-06
4.50892e-06
4.39234e-06
4.27273e-06
5.32031e-06
1.53201e-06
2.38869e-06
2.02885e-06
4.38798e-06
3.17972e-06
3.14298e-06
4.61567e-06
5.87645e-06
8.18088e-06
2.48341e-06
1.53815e-05
3.49683e-06
7.35227e-06
2.01314e-06
2.0408e-06
7.98183e-06
4.41293e-06
7.1389e-06
1.20123e-06
5.03343e-06
1.61257e-06
4.12601e-06
8.73748e-06
4.37849e-06
7.97173e-06
2.13557e-06
3.38137e-06
9.48623e-06
7.40262e-06
1.80226e-06
2.10222e-06
7.98889e-06
1.87983e-06
7.44814e-06
4.19782e-06
2.37156e-06
4.31705e-06
6.06441e-06
4.30905e-06
2.16843e-06
1.8986e-06
1.81294e-06
3.89762e-06
2.44299e-06
1.65628e-06
8.01374e-06
1.64513e-06
2.3931e-06
3.01363e-06
2.99431e-06
1.36541e-06
1.87293e-06
2.09622e-06
1.94762e-06
1.87618e-06
6.37913e-06
4.58628e-06
2.02767e-06
1.61999e-06
2.41284e-06
3.8865e-06
4.44973e-06
2.29839e-06
1.17349e-05
3.11811e-06
1.354e-06
3.45063e-06
1.81846e-06
2.9382e-06
1.37381e-06
2.41464e-06
2.10451e-06
2.63927e-06
2.14166e-06
1.7943e-06
3.19976e-06
1.36989e-06
2.43489e-06
2.08158e-06
1.3601e-06
2.17203e-06
1.89924e-06
3.16996e-06
2.6119e-06
2.37677e-06
1.60225e-06
1.90684e-06
5.49206e-06
1.87878e-06
3.14313e-06
2.97301e-06
1.18454e-06
1.89263e-06
2.04166e-06
2.73572e-06
2.42405e-06
3.23083e-06
3.19752e-06
3.2142e-06
1.94492e-06
1.61196e-06
1.86876e-06
3.22435e-06
2.1114e-06
2.96917e-06
6.15288e-06
2.3097e-06
2.39729e-06
2.38029e-06
2.64508e-06
1.66557e-06
1.82377e-06
2.06583e-06
5.73271e-06
2.08467e-06
2.18324e-06
2.43522e-06
3.1188e-06
3.17316e-06
2.05447e-06
1.9592e-06
3.05718e-06
6.44327e-06
2.08796e-06
2.72615e-06
2.15709e-06
1.86812e-06
2.0028e-06
2.10999e-06
2.88994e-06
2.3222e-06
2.3979e-06
1.97629e-06
6.4127e-06
2.16225e-06
3.29198e-06
2.10223e-06
2.66566e-06
1.94415e-06
2.91865e-06
2.58116e-06
2.11703e-06
2.09534e-06
1.91719e-06
7.06046e-06
2.25203e-06
2.06378e-06
6.28159e-06
2.12147e-06
2.90924e-06
2.12921e-06
6.4487e-06
1.41701e-06
2.0682e-06
6.58062e-06
2.52584e-06
2.39732e-06
7.42191e-07
2.22368e-06
7.06751e-07
7.00657e-07
8.93749e-07
2.53536e-06
2.26535e-06
1.33607e-06
7.84725e-07
2.32303e-06
6.06694e-07
6.68276e-07
6.84307e-07
2.51242e-06
2.31629e-06
7.8367e-07
6.80839e-07
6.22692e-06
6.7471e-07
6.65305e-07
7.01158e-07
1.8232e-06
1.90695e-06
6.86722e-07
7.04792e-07
1.86445e-06
2.28572e-06
6.8045e-07
7.16005e-07
1.82373e-06
6.01079e-07
2.02791e-06
7.4579e-07
5.74423e-07
1.80052e-06
1.454e-06
2.2702e-06
1.80636e-06
2.15356e-06
1.79089e-06
1.79456e-06
6.8231e-07
2.24737e-06
1.45239e-06
1.79556e-06
6.97875e-07
6.24265e-07
6.62717e-07
1.44627e-06
1.40138e-06
2.15258e-06
1.82851e-06
1.3994e-06
1.43932e-06
2.19226e-06
6.97732e-07
1.77726e-06
1.79162e-06
6.54258e-07
7.3397e-07
2.34895e-06
7.10392e-07
6.56982e-07
6.26314e-07
2.18926e-06
6.12493e-07
6.03901e-07
5.92831e-07
5.12031e-07
5.11667e-07
4.9467e-07
4.97016e-07
4.96269e-07
5.33079e-07
4.94191e-07
4.97855e-07
4.86862e-07
4.90626e-07
4.94649e-07
4.94954e-07
4.91922e-07
4.89615e-07
4.96354e-07
4.95189e-07
4.82188e-07
1.10854e-06
5.3299e-07
5.44763e-07
5.36655e-07
5.15417e-07
5.01772e-07
5.53774e-07
5.53774e-07
5.53774e-07
5.53774e-07
5.53774e-07
5.53774e-07
5.50785e-07
5.50785e-07
7.45291e-07
7.11668e-07
4.9897e-07

NodalForce_(N) 3 343 double
1.44455e-08 7.712e-09 8.18633e-10
3.095e-08 9.44469e-08 1.63477e-08
0.000279429 2.47057e-05 0.000583401
2.52863e-07 1.02649e-07 4.4112e-09
2.78592e-07 4.56132e-07 1.243e-07
4.4704e-08 4.32414e-07 1.72365e-07
-9.05836e-09 1.05232e-06 4.12456e-07
5.27692e-08 5.27321e-07 1.79237e-07
6.65724e-08 5.94138e-07 2.44544e-07
-1.92674e-08 2.38745e-07 8.12946e-08
4.75044e-08 1.27432e-07 6.41552e-08
2.18841e-07 6.12231e-07 2.70488e-07
1.85484e-07 2.07435e-07 9.32179e-08
1.18809e-07 8.01815e-08 1.45275e-08
-9.09721e-10 1.09502e-07 6.41325e-08
-3.61111e-07 6.65175e-07 3.1446e-07
-1.70185e-07 4.79793e-07 1.92584e-07
1.3437e-07 8.90874e-08 2.78151e-08
0.000791616 0.000627582 0.000342316
4.33413e-08 2.46453e-08 1.26914e-08
2.42645e-07 5.53099e-07 1.77361e-07
5.13431e-07 1.35204e-06 4.90181e-07
0.00175735 -0.000373752 0.00036016
2.43856e-07 1.87606e-07 5.44346e-08
5.46654e-07 6.00201e-07 1.49408e-07
1.80188e-07 2.14851e-07 7.14543e-08
6.61339e-08 1.10331e-08 2.30611e-09
2.62537e-07 1.8222e-07 3.36692e-08
9.02907e-10 3.54446e-08 1.58388e-08
-1.29624e-07 6.53489e-08 1.16128e-08
-1.8738e-08 2.05409e-07 8.35818e-08
-1.39871e-06 1.78339e-06 8.99555e-07
-3.17329e-07 1.31868e-06 6.27846e-07
-2.65198e-07 9.70317e-07 4.22735e-07
-2.66579e-07 6.2712e-07 2.68622e-07
-5.85643e-07 1.10174e-06 4.64723e-07
-3.43934e-07 4.84027e-07 2.08606e-07
-5.03e-07 1.55849e-06 6.18375e-07
5.59286e-08 1.43811e-07 5.57499e-08
-2.58212e-08 2.70491e-07 1.51256e-07
2.35256e-07 2.57282e-07 5.80661e-08
-6.40645e-07 5.19535e-07 2.81278e-07
-2.8787e-07 7.6261e-08 5.72924e-08
-1.21923e-07 4.14479e-08 2.04408e-08
-3.59668e-07 2.47343e-07 9.60556e-08
0.00104876 -1.25509e-05 -0.000349798
-2.90388e-08 3.22672e-08 6.82107e-09
0.000398226 0.000589079 -0.000463089
-1.00493e-07 9.47928e-08 4.52428e-08
-1.96829e-08 1.23587e-08 6.36002e-09
-2.16881e-07 2.40678e-07 1.41634e-07
-3.05965e-07 4.51164e-07 2.53383e-07
-1.51334e-07 6.27626e-08 2.67187e-08
-9.06985e-08 6.53262e-08 3.43143e-08
-4.43564e-08 3.00144e-08 1.21607e-08
-2.17976e-07 7.48694e-07 3.56421e-07
0.000806292 -0.000248679 3.0733e-05
5.74454e-09 1.44105e-08 5.25225e-09
0.00192109 -0.000594932 0.00067707
-1.34403e-07 3.44971e-07 1.60097e-07
-3.58672e-08 4.70882e-08 3.16152e-08
2.44207e-07 6.37273e-07 2.39403e-07
1.16332e-06 1.96132e-06 6.28531e-07
2.20654e-07 9.36785e-07 3.50136e-07
2.90716e-07 2.65316e-07 4.11296e-08
-9.02424e-08 3.38073e-09 9.42573e-09
1.00273e-07 5.58591e-08 1.15398e-08
-9.94039e-08 4.7254e-07 2.49624e-07
-1.32838e-07 5.37559e-07 2.25975e-07
3.86761e-07 5.94369e-07 2.00514e-07
6.3488e-08 4.51662e-08 1.70661e-08
1.01947e-08 3.74746e-08 2.09663e-08
1.3628e-07 7.11908e-08 1.00133e-08
-1.04484e-07 2.24131e-07 1.20571e-07
9.18356e-08 9.9103e-08 2.31911e-08
0.00133996 -0.000303413 -0.000494003
1.11505e-07 2.38218e-07 6.7646e-08
2.5806e-08 5.02448e-09 3.63856e-09
-3.7915e-07 2.64977e-07 1.70099e-07
-4.42508e-07 2.82518e-07 1.54749e-07
-3.16181e-07 1.55348e-07 8.44357e-08
-2.65806e-07 1.34153e-07 9.56671e-08
-3.28591e-07 6.95882e-07 3.13272e-07
-5.44136e-08 8.13562e-08 2.05877e-08
0.0011977 0.000341121 0.000216395
-9.14115e-09 3.66278e-09 2.43776e-09
0.00121172 -0.000136032 -0.000282934
0.00184785 -0.000236482 -0.000496837
0.00105069 0.000788765 -0.000566334
4.13304e-08 3.52456e-08 1.44249e-08
-4.63893e-08 1.12773e-08 8.44206e-09
-1.84584e-07 2.64407e-07 1.1904e-07
-2.23719e-07 1.40944e-07 1.12625e-07
-4.62926e-10 2.25117e-07 1.14575e-07
3.85386e-07 1.84506e-06 8.02996e-07
3.23826e-07 3.61998e-07 9.74057e-08
4.19484e-07 5.60415e-07 1.45429e-07
9.6984e-08 3.46769e-07 1.31792e-07
0.0017863 0.000801809 -5.44252e-05
-5.17448e-07 5.71483e-07 2.56988e-07
3.55207e-07 3.34916e-07 1.02341e-07
2.92e-07 5.05786e-07 1.66031e-07
-5.25754e-08 2.32864e-08 7.57289e-09
-5.2383e-07 6.29933e-07 2.85869e-07
5.62456e-08 2.95971e-08 7.84378e-09
3.87925e-07 3.35132e-07 8.46456e-08
-4.02299e-07 6.25925e-07 2.29127e-07
3.41689e-07 6.15014e-07 2.25502e-07
3.04166e-07 6.21572e-07 2.21807e-07
1.76964e-09 3.27336e-09 2.84922e-09
-2.8162e-08 3.11017e-07 1.31533e-07
-2.36663e-07 4.68657e-07 1.71085e-07
1.35572e-09 4.61137e-07 1.82309e-07
0.00067721 0.00038364 -0.000449909
1.71706e-07 3.73659e-07 1.3388e-07
1.66507e-08 3.23824e-08 1.01998e-08
-9.43657e-08 3.11197e-07 1.2974e-07
-1.4781e-07 9.20153e-07 3.66467e-07
-2.40504e-07 2.90951e-07 1.18801e-07
1.5144e-07 2.39385e-07 8.73128e-08
2.31455e-07 7.54232e-07 2.99823e-07
7.38352e-08 7.66418e-07 3.14825e-07
6.13464e-08 1.46257e-08 3.58316e-09
0.00146314 0.00018874 0.000396782
2.05661e-08 5.16035e-09 8.57444e-10
-8.43086e-08 2.97035e-07 1.31742e-07
-9.99738e-08 2.52961e-07 1.09152e-07
0.00166918 0.000460796 -0.000774516
-2.18777e-08 1.40188e-09 4.47601e-09
-2.59343e-07 2.67806e-07 7.65683e-08
-1.94106e-07 2.07247e-07 9.98616e-08
-2.24836e-07 3.86757e-07 1.86312e-07
4.43267e-08 2.09498e-07 1.04234e-07
-8.11573e-08 2.76298e-07 1.4916e-07
0.00114765 -0.000186286 0.000415997
-3.24424e-08 3.08082e-09 8.05015e-10
0.00146103 -0.000348577 0.00039358
2.07065e-07 2.82322e-07 8.72462e-08
-4.04939e-08 3.12635e-07 1.26773e-07
-4.33856e-08 8.08452e-07 3.08902e-07
-2.80453e-07 5.59801e-07 2.93529e-07
4.03627e-08 2.22563e-07 1.06042e-07
1.0499e-07 2.29349e-07 9.33841e-08
1.00089e-07 4.18987e-07 1.76993e-07
0.00105583 0.000556627 -0.000751714
2.17444e-07 3.42674e-07 1.50061e-07
1.4476e-07 1.06913e-07 1.65956e-08
2.80855e-07 1.34074e-06 4.8226e-07
8.95701e-08 5.28382e-07 2.04491e-07
-8.89501e-08 4.8509e-08 2.07179e-08
-1.23167e-07 4.9103e-08 1.62109e-08
2.88921e-08 6.2948e-09 -1.95349e-09
0.00232266 0.000725441 -2.54001e-05
-4.58652e-08 2.26134e-07 1.01341e-07
-1.76742e-07 2.18002e-07 8.41445e-08
-2.20192e-07 2.04002e-07 1.16327e-07
0.00151512 0.000114954 -0.000677011
0.000925095 0.000833217 0.00178782
-9.60746e-08 1.42732e-07 8.345e-08
4.99901e-08 5.43495e-07 2.33276e-07
6.63774e-08 6.07213e-08 1.61605e-08
-1.05317e-07 3.06839e-08 1.64663e-08
1.95046e-07 2.39567e-07 7.88995e-08
-8.02994e-08 7.61779e-08 5.09319e-08
-1.78033e-07 3.50601e-07 1.73129e-07
-1.77704e-07 2.3282e-07 1.25781e-07
2.01746e-07 2.99234e-07 1.04682e-07
2.15866e-08 4.54421e-08 2.22159e-08
-7.6462e-08 2.45481e-07 1.04962e-07
-1.02046e-07 1.68424e-07 6.88077e-08
-4.16558e-09 1.16724e-07 5.23028e-08
-7.85264e-08 4.74746e-07 1.74456e-07
2.02581e-07 2.23807e-07 6.41115e-08
-6.53682e-08 3.21553e-08 3.38818e-08
-1.04465e-07 8.15286e-08 7.0268e-08
-2.11199e-08 3.49413e-08 2.71573e-08
-2.24327e-07 1.90259e-07 9.74982e-08
5.00011e-08 3.2967e-08 1.07824e-08
-1.35888e-08 4.57469e-07 1.82908e-07
0.00182012 -0.000122344 0.000261921
-4.99996e-08 5.37042e-07 2.49055e-07
1.70282e-07 4.24791e-07 1.58256e-07
2.13189e-07 5.61147e-07 2.04039e-07
0.00140152 -0.000196725 -0.000311734
-5.91656e-08 1.79472e-08 1.63068e-08
9.89067e-08 2.14282e-07 9.30966e-08
-6.10798e-09 4.15326e-07 2.02659e-07
-6.54268e-08 2.84009e-07 1.41915e-07
-2.357e-07 1.80104e-07 7.28266e-08
-2.3652e-07 2.94511e-07 1.08007e-07
-1.59703e-07 1.41496e-07 5.05114e-08
-2.43471e-07 2.10403e-07 9.74539e-08
-7.77504e-08 2.5637e-08 3.22795e-08
6.63286e-08 8.0979e-08 3.48155e-08
6.47976e-08 3.81349e-08 2.15349e-09
7.61427e-08 4.69922e-08 5.27587e-09
8.71573e-08 3.54376e-07 1.3367e-07
-1.23395e-07 1.52248e-07 5.3767e-08
2.96885e-08 3.51286e-07 1.4046e-07
3.56823e-08 1.79771e-07 7.22192e-08
-1.87549e-07 3.14849e-07 1.3062e-07
0.00152434 -0.000312551 -8.97088e-05
-4.22491e-08 2.73509e-09 4.99549e-09
0.00134128 -0.000627125 2.41577e-05
-4.56743e-08 7.2873e-08 3.10367e-08
-1.37993e-07 1.12518e-07 4.2279e-08
8.49146e-08 2.77306e-07 9.8011e-08
8.17821e-08 2.0488e-07 7.67669e-08
1.99155e-07 2.01078e-07 4.18393e-08
1.3461e-07 1.57506e-07 4.48106e-08
-2.22793e-08 1.71808e-09 1.38243e-09
1.64239e-07 2.77376e-07 9.81657e-08
-3.07553e-08 3.50692e-07 1.56967e-07
-2.56632e-07 2.65851e-07 1.11562e-07
-2.61507e-08 1.37995e-07 8.06082e-08
1.00228e-07 4.52967e-08 2.43673e-09
2.61089e-08 3.3739e-07 1.50334e-07
-6.02073e-09 5.73076e-08 1.72367e-08
7.9796e-08 1.39904e-07 5.40383e-08
6.34865e-08 4.14772e-07 1.65077e-07
-1.79568e-07 1.17716e-07 5.52318e-08
1.24762e-09 4.46523e-07 1.89302e-07
-1.16108e-07 1.12137e-07 4.10079e-08
2.30135e-07 3.07335e-07 9.60199e-08
-9.77056e-08 3.65464e-08 1.09735e-08
0.0016445 0.00029488 0.000730621
-1.1337e-07 6.81929e-08 5.39287e-08
1.01842e-07 1.29859e-07 4.66404e-08
7.79371e-09 1.4586e-07 3.86424e-08
-1.34294e-07 8.13531e-08 2.62189e-08
1.1873e-07 9.52548e-08 1.28369e-08
-4.62341e-08 1.29506e-07 5.0833e-08
0.00202335 -0.00142465 8.21683e-05
0.00190198 0.000716026 -0.00115752
2.73951e-08 9.2823e-08 4.23806e-08
-8.60833e-08 2.71236e-07 8.57402e-08
1.12101e-07 9.8984e-08 2.14841e-08
-3.92089e-08 3.4342e-07 1.4482e-07
-8.84405e-08 1.37512e-07 4.50201e-08
-8.809e-08 1.36128e-07 9.08875e-08
2.19401e-08 4.05142e-07 1.58288e-07
0.000825758 0.000733744 1.26995e-05
-2.62995e-08 2.89027e-07 1.21597e-07
4.27438e-08 2.41402e-08 4.30213e-09
0.000895623 -1.4365e-05 -0.000979378
-8.2964e-08 4.25277e-08 2.70403e-08
0.00206469 -0.00115357 0.00014445
-4.80623e-08 3.78634e-07 1.52374e-07
6.61871e-09 2.25506e-07 9.27225e-08
0.000786953 -0.00106961 0.000118667
1.18793e-07 1.20241e-07 4.29509e-08
0.000743601 0.00119265 -6.79313e-05
6.71668e-08 1.20666e-07 4.25682e-08
-7.61882e-08 1.11046e-07 5.21791e-08
-1.47836e-08 7.92331e-08 3.84388e-08
7.94632e-08 3.96205e-07 1.58845e-07
6.86484e-08 5.01894e-08 1.25262e-08
0.000662378 -0.000176312 0.00079715
6.33609e-08 1.50746e-07 4.31237e-08
2.30715e-08 4.20293e-08 2.11941e-08
4.85067e-08 1.1876e-07 4.71063e-08
0.000419724 -0.000437153 0.00102934
-1.22519e-07 2.47661e-07 1.03518e-07
-8.42522e-08 3.19073e-07 1.31252e-07
5.95798e-08 1.23119e-07 4.60421e-08
2.52559e-08 1.21489e-07 4.77499e-08
2.26271e-08 7.85252e-09 2.186e-09
0.000996115 0.000536371 4.41345e-05
0.000670527 -0.000989231 0.00017989
0.000718252 -0.000984077 0.000101815
-6.44237e-08 2.48322e-07 1.05553e-07
-5.03597e-08 9.95651e-08 4.25618e-08
-1.07266e-07 7.36564e-08 2.19284e-08
-5.73956e-08 1.20295e-07 6.09226e-08
0.000764564 0.000483129 0.000138448
0.000413949 0.000366729 -0.0005215
1.29668e-08 5.49105e-09 4.0746e-09
7.36599e-09 6.27101e-09 1.52518e-09
-2.32102e-07 2.36238e-07 1.19274e-07
-3.02211e-08 4.44603e-09 5.36751e-09
0.000628785 -0.00020439 -0.000299625
-1.92603e-07 2.89139e-07 1.44346e-07
-3.48569e-08 5.91337e-08 2.61595e-08
2.17057e-07 4.03663e-07 1.39982e-07
-2.46061e-08 3.51855e-09 1.16407e-09
-2.09323e-07 2.30982e-07 1.22852e-07
-3.18878e-08 1.14354e-07 5.63355e-08
0.000376381 -0.000428355 0.000772426
7.29304e-08 6.54078e-08 1.91177e-08
1.69054e-07 2.18557e-07 6.83035e-08
2.19692e-08 6.3793e-09 -2.20838e-09
0.000504417 -0.000475239 0.000584327
-1.15608e-08 5.43047e-09 1.34514e-09
-1.49838e-08 2.6926e-09 3.63248e-09