# vtk DataFile Version 4.2
vtk output
ASCII
DATASET UNSTRUCTURED_GRID

POINTS 343 double
0.00161251 0.00421625 -2.06457e-05
0.00311859 0.00502396 0.0021353
0 0.00419538 0.00112517
0.00277581 0.00199106 0.00190662
0.00744889 0.00251011 0.00494008
0.00744566 0.00393126 0.00630474
0.0109787 0.00492696 0.00486496
0.00896496 0.00497336 0.00358221
0.00984834 0.00342512 0.00679205
0.0071826 0.0050898 0.00491062
0.00602014 0.00120121 0.00992203
0.00760709 0.00218554 0.00780842
0.00603993 7.67654e-05 0.00824157
0.00289115 0.00204009 0.00799678
0.00616814 0.00261657 0.00991981
0.0100085 0.00658274 0.00682255
0.00923019 0.00630805 0.00506955
0.00325053 0.00222759 0.00510491
0 0.00143586 0.00417514
0.0022907 0.00349617 0.00400771
0.0098557 0.00333128 0.00304246
0.0111673 0.00237137 0.0049277
0 0.00270918 0.00154168
0.00599957 0.00151277 -7.12405e-05
0.00722108 0.00228849 0.00210984
0.00570757 0.00360467 0.00153343
0.00193573 2.43809e-05 0.00403557
0.00603812 7.73989e-05 0.00161419
0.00377546 0.00700221 -4.58842e-05
0.0027797 0.00808951 0.00190892
0.00588127 0.00632719 0.00157303
0.0115102 0.0081406 0.00785303
0.011468 0.00497426 0.00787859
0.0120724 0.00624583 0.00579912
0.0143769 0.00901538 0.00402084
0.0109015 0.00778329 0.00483037
0.0123205 0.0101468 0.00401797
0.0114822 0.00812717 0.0018792
0.00508709 0.00310453 0.00689597
0.00638428 0.00374767 0.00824273
0.00560693 0.00167783 0.00589907
0.00719204 0.00776393 0.00758604
0.00285213 0.00804537 0.00795352
0.00405414 0.0100499 0.00707561
0.00562441 0.00847377 0.00588682
0 0.00695361 0.00262895
0.00236286 0.00627042 0.00405761
0 0.0040177 0.00850214
0.003323 0.0050291 0.00761954
0.00205611 0.0042008 0.0099739
0.0103173 0.00725656 0.00986673
0.00879954 0.00608941 0.00830612
0.00294308 0.00798031 0.00470408
0.00437093 0.00700121 0.00641288
0.00227712 0.0061083 0.00589688
0.0143685 0.00598123 0.00813145
0 0.00718191 0.00711644
0.00227501 0.00580394 -2.88611e-05
0 0.00577432 0.00158701
0.0143711 0.00735219 0.00693441
0.00412045 0.00340336 0.00994603
0.0143671 0.00161891 0.00400356
0.0115944 0.00210823 0.00184203
0.0120888 0.00367164 0.00385255
0.00536866 0.00172215 0.00406088
0.00216143 0.0100277 0.00578714
0.00404872 5.19842e-05 0.00707728
0.00879448 0.00429134 0.00826464
0.0143724 0.00744641 0.00402366
0.0123079 0.000153374 0.00401948
0.00481533 0.00293569 -5.76553e-05
0.00388333 0.00159072 0.00994932
0.00406455 5.24075e-05 0.00278089
0.00690049 0.00528679 0.00746703
0.00454505 0.0032073 0.00310957
0 0.00849157 0.00581511
0.00700671 0.00376543 0.00369925
0.00221014 0.0027378 -2.79668e-05
0.00833196 0.00842626 0.00989163
0.00859511 0.0101033 0.00839641
0.00604746 0.0100737 0.00824046
0.00576708 0.0085742 0.00992429
0.0143736 0.00865754 0.0056362
0.00452265 0.00689427 0.00309275
0 0.00748929 0.00137438
0.00196958 0.00751503 -2.51738e-05
0 0.00287343 0.00335182
0 0.00580816 0.00831736
0 0.00429792 0.00253898
0.00364548 0.00434505 -4.42922e-05
0.00205567 0.00584565 0.00997381
0.00744175 0.00656862 0.00630688
0.00517583 0.00657767 0.00816777
0.0099861 0.00275199 0.00987117
0.0115316 0.00210245 0.00789006
0.0100211 0.00012626 0.00296104
0.00865403 0.00177416 0.00350721
0.0143687 0.00305289 0.00318171
0 0.00140616 0.00256446
0.00916295 0.00833936 0.00630642
0.00836767 0.00154229 -9.80692e-05
0.00868142 0.00366161 0.00149936
0.00452943 0.0100556 0.00576696
0.0123105 0.0101469 0.00568011
0.00368177 0.00145372 -4.45857e-05
0.00859194 0.000109174 0.00139127
0.00903325 0.00839816 0.00350607
0.0122987 0.000153308 0.0056815
0.00891847 0.00178568 0.00625439
0.00201295 0.00258962 0.00997434
0.0102419 0.00730709 -0.000120388
0.0074303 0.0077823 0.00207758
0.00854858 0.00620004 0.00149912
0 0.00686719 0.00578184
0.0143708 0.00158987 0.00239732
0.00254509 0.00364299 0.00637552
0.014379 0.00865256 0.00245444
0.0120969 0.00633654 0.0039863
0.008603 0.010104 0.00138943
0.0100151 0.000125948 0.00680224
0.0143653 0.00161811 0.00564172
0.012071 0.00372273 0.00591135
0.00216014 2.71665e-05 0.00578796
0 0.0013659 0.00748679
0.00196039 2.46935e-05 0.00750448
0.0143705 0.00703888 0.00560237
0.00836905 0.00859443 -9.95304e-05
0 0.0075208 0.00859127
0.00195601 0.00751149 0.00997513
0.00608008 0.00828115 0.00355122
0.0123579 0.010146 0.00735603
0.014375 0.00879557 0.00734231
0.00829136 0.00169149 0.00989276
0.0104314 0.00431695 0.00986517
0 0.0057735 0.00666667
0.00196197 0.0100251 0.00750358
0 0.00863025 0.00752641
0.0123497 0.00015535 0.00236054
0.0143746 0.0071264 0.00246022
0.012169 0.00648988 0.00201879
0.0122335 0.00597241 0.00984321
0.0107613 0.00150921 0.00986177
0.0123458 0.000154937 0.00735786
0.014366 0.0015485 0.00730426
0 0.00143551 0.00581971
0.0085839 0.000108545 0.00839734
0.00605059 7.7269e-05 0.00332489
0.0114136 0.00484909 0.00189932
0.0143711 0.00447486 0.0023718
0.00607318 0.0100738 0.00658913
0.00406898 0.0100498 0.00277943
0.00188096 2.3942e-05 0.00239428
0 0.00727418 0.00419576
0.0143683 0.00594711 0.00648524
0.0100328 0.0101203 0.00295902
0.0107937 0.00876545 0.00986056
0 0.00574334 0.00336387
0 0.0043297 0.00416652
0.00987132 0.005905 0.00987248
0.0143651 0.00320105 0.00673516
0.00606488 7.73271e-05 0.00659082
0.00355409 0.0100437 0.00856566
0.0107688 0.00150254 -0.000124949
0.00829505 0.00676864 0.0098923
0.014373 0.00769 0.00840372
0.0123787 0.00770112 0.0098408
0.00994665 0.00314779 -0.000115775
0.00483351 0.0058056 -5.80275e-05
0.0108355 0.00876153 -0.00012663
0.0108175 0.0101292 0.00125831
0.00831882 0.00697027 -9.84924e-05
0.0100319 0.00649469 0.0029116
0.0108059 0.000137151 0.00125949
0.00413667 0.00505068 0.009946
0.00621637 0.00591091 0.00991888
0.00621465 0.00424406 0.00991907
0.0108101 0.0101278 0.00847849
0.00354923 4.52612e-05 0.00856688
0.0143712 0.0059178 0.00319375
0 0.00302218 0.00691532
0.0143666 0.0041953 0.00831504
0.0122335 0.00417019 -0.000140779
0.0143735 0.00288912 0.00137941
0 0.00244495 0.00857025
0.003507 0.00861381 0.00995415
0.010798 0.000136347 0.00847979
0.0121996 0.0027751 0.00984351
0.0127228 0.00435048 0.00983631
0.00815277 0.0100983 0.00573074
0.00745435 0.00767575 0.00493907
0.00811466 0.0100977 0.00411366
0.0100266 0.0101202 0.00680079
0.00433604 0.00697018 0.00994331
0.00598907 0.00440656 -7.09815e-05
0.00406776 5.19659e-05 0.00435376
0.00452342 5.80455e-05 0.00576912
0.0143759 0.00437305 0.000963961
0.00522817 0.00840298 0.00152336
0.0143683 0.00450604 0.00399388
0.00959187 0.00589215 -0.000112831
0.0123619 0.010147 0.00235905
0 0.00848692 0.00262374
0.00193663 0.0100251 0.00403471
0 0.00885053 0.00419359
0.00603171 0.00892516 -7.24983e-05
0.00604576 0.0100735 0.00161278
0.00718572 0.00488261 0.00229118
0.0103864 0.00465117 -0.000120947
0.00810394 0.000102676 0.00411621
0.00814247 0.00010321 0.0057327
0.00188151 0.0100241 0.00239328
0.01233 0.00260031 -0.000142199
0.014366 0.00469811 0.00703747
0.0102344 0.0101228 0.00487321
0.00824816 0.0034669 0.00989295
0.00352722 4.57964e-05 0.0013126
0.0143668 0.00262557 0.00838286
0.00343591 0.00483509 0.00495629
0.00838946 0.00443598 -9.83002e-05
0.0119702 0.00595426 -0.000137837
0.00787635 0.010095 0.00712046
0.0143661 0.00450638 0.00565561
0.00777124 0.0100939 0.00267941
0.0102229 0.000128465 0.00487488
0.00407225 0.01005 0.00435165
0 0.00452174 0.00721958
0.00649255 0.00730027 0.00991516
0.00786612 9.97682e-05 0.00712155
0.00517445 0.00513999 0.00353086
0.00611014 0.010074 0.00493036
0.00610163 7.80347e-05 0.0049329
0.00527005 0.00528358 0.00610833
0 0.005744 0.00499998
0 0.00433013 0.00583333
0.00719075 0.00583498 -8.50283e-05
0.00716511 0.00642917 0.00346459
0.00776081 9.85506e-05 0.00268141
0.014369 0.00591714 0.00482416
0.00529988 0.00647544 0.00477686
0.00825058 0.00510206 0.0098929
0.0143762 0.00594789 0.00142401
0 0.00666667 0
0.0123668 0.00766967 -0.000142469
0.00478753 6.19278e-05 -5.70275e-05
0 0.01 0.00666667
0.00718575 0.0100859 0.0099067
0 0.00288419 0.00499914
0.0143798 0.0076599 0.00121154
0.0143834 0.00683819 -0.000160303
0 0.005 0.01
0.00718684 0.002976 -8.46302e-05
0 0.005 0
0.014373 0.000186864 0.00316423
0.0143831 0.0101606 0.00648435
0.00603328 0.00735006 -7.21293e-05
0.0143663 0.00306384 0.0048241
0.00718668 9.2516e-05 -8.49271e-05
0 0 0.00666667
0.00545378 0.00368599 0.00515771
0.00717681 9.09526e-05 0.00990772
0.0143695 0.000186352 0.0064865
0 0 0.005
0.012641 0.010149 0.00107292
0.0143851 0.0089454 0.00105787
0.0143705 0.000186315 0.00482483
0.0143815 0.00517612 -0.000159165
0.00174854 0.00124247 -2.21335e-05
0 0.00122008 0.00122008
0 0.00333333 0.01
0 0.00666667 0.01
0.0126407 0.00892995 -0.000145549
0.0143861 0.0101602 0.00316171
0.00605859 0.0100734 0.00332259
0.0143759 0.00683764 0.00980782
0 0.00333333 0
0 0.00122008 0.00877992
0.00174619 2.19806e-05 0.00875826
0.00174607 0.00124205 0.00997773
0.0126324 0.0101475 0.0086178
0.0017473 0.00880198 0.00997764
0 0.00877992 0.00877992
0.0143776 0.008944 0.00859214
0.00959863 0.0101149 -0.000114252
0.0143757 0.00140502 0.00105792
0.00174794 0.0100221 0.00875769
0.0126304 0.0089277 0.00983674
0.0143736 0.00517464 0.00980839
0 0 0.00333333
0.00958657 0.000122508 -0.000112178
0.0126282 0.000160556 0.00107335
0.00173602 2.22274e-05 0.00118988
0 0.00877992 0.00122008
0.0017482 0.00880268 -2.23946e-05
0.00173635 0.0100221 0.00118891
0.0143683 0.00140355 0.00859281
0.0126212 0.00137936 0.0098377
0.00957506 0.000121069 0.00987718
0.0126316 0.00138113 -0.000145103
0.0126202 0.000159409 0.0086192
0.0143806 0.00351319 -0.000158896
0.00478623 0.0100576 0.00993745
0.00353058 0.0100434 0.00131147
0.00958695 0.0101135 0.00987634
0.0143716 0.00351118 0.00980819
0 0.01 0.005
0.00376877 0.00853472 -4.60546e-05
0.0143838 0.0101604 0.00482433
0 0.01 0.00333333
0 0.00166667 0
0.0143772 0.000186709 0.00150292
0 0.00166667 0.01
0 0.00833333 0
0.0143884 0.00850121 -0.000160978
0.0143705 0.000185962 0.00814862
0.0143906 0.0101622 0.00150271
0.0143838 0.0101608 0.00814706
0.0023895 0.0100291 0.00996921
0 0.01 0.00833333
0.0120019 0.0101415 -0.000139684
0.0119891 0.000153531 -0.000138801
0.0119783 0.000151773 0.00984672
0.0119907 0.0101395 0.00984563
0 0 0.00833333
0.01438 0.00849806 0.00980879
0.00239002 3.1222e-05 -2.95756e-05
0 0 0.00166667
0.00479293 0.0100587 -5.82811e-05
0.0143717 0.00184968 0.00980942
0.0143811 0.00185174 -0.00015972
0.0023862 3.03588e-05 0.00996978
0.00239126 0.0100298 -3.02009e-05
0 0.01 0.00166667
0.0143863 0.0101624 0.00981023
0 0 0.01
0.0143961 0.0101632 -0.000162242
0.0143735 0.000184806 0.00981197
0 0.01 0.01
0.0143834 0.000186353 -0.000161251
0 0.01 0
0 0 0
0.00719575 0.0100869 -8.67212e-05
0.00478 6.08945e-05 0.00993805
0 0.00833333 0.01

CELLS 343 686
1 0
1 1
1 2
1 3
1 4
1 5
1 6
1 7
1 8
1 9
1 10
1 11
1 12
1 13
1 14
1 15
1 16
1 17
1 18
1 19
1 20
1 21
1 22
1 23
1 24
1 25
1 26
1 27
1 28
1 29
1 30
1 31
1 32
1 33
1 34
1 35
1 36
1 37
1 38
1 39
1 40
1 41
1 42
1 43
1 44
1 45
1 46
1 47
1 48
1 49
1 50
1 51
1 52
1 53
1 54
1 55
1 56
1 57
1 58
1 59
1 60
1 61
1 62
1 63
1 64
1 65
1 66
1 67
1 68
1 69
1 70
1 71
1 72
1 73
1 74
1 75
1 76
1 77
1 78
1 79
1 80
1 81
1 82
1 83
1 84
1 85
1 86
1 87
1 88
1 89
1 90
1 91
1 92
1 93
1 94
1 95
1 96
1 97
1 98
1 99
1 100
1 101
1 102
1 103
1 104
1 105
1 106
1 107
1 108
1 109
1 110
1 111
1 112
1 113
1 114
1 115
1 116
1 117
1 118
1 119
1 120
1 121
1 122
1 123
1 124
1 125
1 126
1 127
1 128
1 129
1 130
1 131
1 132
1 133
1 134
1 135
1 136
1 137
1 138
1 139
1 140
1 141
1 142
1 143
1 144
1 145
1 146
1 147
1 148
1 149
1 150
1 151
1 152
1 153
1 154
1 155
1 156
1 157
1 158
1 159
1 160
1 161
1 162
1 163
1 164
1 165
1 166
1 167
1 168
1 169
1 170
1 171
1 172
1 173
1 174
1 175
1 176
1 177
1 178
1 179
1 180
1 181
1 182
1 183
1 184
1 185
1 186
1 187
1 188
1 189
1 190
1 191
1 192
1 193
1 194
1 195
1 196
1 197
1 198
1 199
1 200
1 201
1 202
1 203
1 204
1 205
1 206
1 207
1 208
1 209
1 210
1 211
1 212
1 213
1 214
1 215
1 216
1 217
1 218
1 219
1 220
1 221
1 222
1 223
1 224
1 225
1 226
1 227
1 228
1 229
1 230
1 231
1 232
1 233
1 234
1 235
1 236
1 237
1 238
1 239
1 240
1 241
1 242
1 243
1 244
1 245
1 246
1 247
1 248
1 249
1 250
1 251
1 252
1 253
1 254
1 255
1 256
1 257
1 258
1 259
1 260
1 261
1 262
1 263
1 264
1 265
1 266
1 267
1 268
1 269
1 270
1 271
1 272
1 273
1 274
1 275
1 276
1 277
1 278
1 279
1 280
1 281
1 282
1 283
1 284
1 285
1 286
1 287
1 288
1 289
1 290
1 291
1 292
1 293
1 294
1 295
1 296
1 297
1 298
1 299
1 300
1 301
1 302
1 303
1 304
1 305
1 306
1 307
1 308
1 309
1 310
1 311
1 312
1 313
1 314
1 315
1 316
1 317
1 318
1 319
1 320
1 321
1 322
1 323
1 324
1 325
1 326
1 327
1 328
1 329
1 330
1 331
1 332
1 333
1 334
1 335
1 336
1 337
1 338
1 339
1 340
1 341
1 342

CELL_TYPES 343
1
1
1
1
1
1
1
1
1
1
1
1
1
1
1
1
1
1
1
1
1
1
1
1
1
1
1
1
1
1
1
1
1
1
1
1
1
1
1
1
1
1
1
1
1
1
1
1
1
1
1
1
1
1
1
1
1
1
1
1
1
1
1
1
1
1
1
1
1
1
1
1
1
1
1
1
1
1
1
1
1
1
1
1
1
1
1
1
1
1
1
1
1
1
1
1
1
1
1
1
1
1
1
1
1
1
1
1
1
1
1
1
1
1
1
1
1
1
1
1
1
1
1
1
1
1
1
1
1
1
1
1
1
1
1
1
1
1
1
1
1
1
1
1
1
1
1
1
1
1
1
1
1
1
1
1
1
1
1
1
1
1
1
1
1
1
1
1
1
1
1
1
1
1
1
1
1
1
1
1
1
1
1
1
1
1
1
1
1
1
1
1
1
1
1
1
1
1
1
1
1
1
1
1
1
1
1
1
1
1
1
1
1
1
1
1
1
1
1
1
1
1
1
1
1
1
1
1
1
1
1
1
1
1
1
1
1
1
1
1
1
1
1
1
1
1
1
1
1
1
1
1
1
1
1
1
1
1
1
1
1
1
1
1
1
1
1
1
1
1
1
1
1
1
1
1
1
1
1
1
1
1
1
1
1
1
1
1
1
1
1
1
1
1
1
1
1
1
1
1
1
1
1
1
1
1
1
1
1
1
1
1
1
1
1
1
1
1
1
1
1
1
1
1
1
1
1
1
1
1
1
1
1
1
1
1
1
1
1
1
1
1
1

POINT_DATA 343
FIELD FieldData 8

NodeID_(#) 1 343 int
0
1
2
3
4
5
6
7
8
9
10
11
12
13
14
15
16
17
18
19
20
21
22
23
24
25
26
27
28
29
30
31
32
33
34
35
36
37
38
39
40
41
42
43
44
45
46
47
48
49
50
51
52
53
54
55
56
57
58
59
60
61
62
63
64
65
66
67
68
69
70
71
72
73
74
75
76
77
78
79
80
81
82
83
84
85
86
87
88
89
90
91
92
93
94
95
96
97
98
99
100
101
102
103
104
105
106
107
108
109
110
111
112
113
114
115
116
117
118
119
120
121
122
123
124
125
126
127
128
129
130
131
132
133
134
135
136
137
138
139
140
141
142
143
144
145
146
147
148
149
150
151
152
153
154
155
156
157
158
159
160
161
162
163
164
165
166
167
168
169
170
171
172
173
174
175
176
177
178
179
180
181
182
183
184
185
186
187
188
189
190
191
192
193
194
195
196
197
198
199
200
201
202
203
204
205
206
207
208
209
210
211
212
213
214
215
216
217
218
219
220
221
222
223
224
225
226
227
228
229
230
231
232
233
234
235
236
237
238
239
240
241
242
243
244
245
246
247
248
249
250
251
252
253
254
255
256
257
258
259
260
261
262
263
264
265
266
267
268
269
270
271
272
273
274
275
276
277
278
279
280
281
282
283
284
285
286
287
288
289
290
291
292
293
294
295
296
297
298
299
300
301
302
303
304
305
306
307
308
309
310
311
312
313
314
315
316
317
318
319
320
321
322
323
324
325
326
327
328
329
330
331
332
333
334
335
336
337
338
339
340
341
342

Component_(#) 1 343 int
0
0
0
0
0
0
0
0
0
0
0
0
0
0
0
0
0
0
0
0
0
0
0
0
0
0
0
0
0
0
0
0
0
0
0
0
0
0
0
0
0
0
0
0
0
0
0
0
0
0
0
0
0
0
0
0
0
0
0
0
0
0
0
0
0
0
0
0
0
0
0
0
0
0
0
0
0
0
0
0
0
0
0
0
0
0
0
0
0
0
0
0
0
0
0
0
0
0
0
0
0
0
0
0
0
0
0
0
0
0
0
0
0
0
0
0
0
0
0
0
0
0
0
0
0
0
0
0
0
0
0
0
0
0
0
0
0
0
0
0
0
0
0
0
0
0
0
0
0
0
0
0
0
0
0
0
0
0
0
0
0
0
0
0
0
0
0
0
0
0
0
0
0
0
0
0
0
0
0
0
0
0
0
0
0
0
0
0
0
0
0
0
0
0
0
0
0
0
0
0
0
0
0
0
0
0
0
0
0
0
0
0
0
0
0
0
0
0
0
0
0
0
0
0
0
0
0
0
0
0
0
0
0
0
0
0
0
0
0
0
0
0
0
0
0
0
0
0
0
0
0
0
0
0
0
0
0
0
0
0
0
0
0
0
0
0
0
0
0
0
0
0
0
0
0
0
0
0
0
0
0
0
0
0
0
0
0
0
0
0
0
0
0
0
0
0
0
0
0
0
0
0
0
0
0
0
0
0
0
0
0
0
0
0
0
0
0
0
0
0
0
0
0
0
0
0
0
0
0
0
0
0
0
0
0
0
0
0
0
0
0
0
0

NodalMass_(kg) 1 343 double
3.15563e-06
1.41304e-05
2.20912e-06
1.71484e-05
8.42e-06
9.09306e-06
1.01179e-05
7.52198e-06
6.81096e-06
5.58223e-06
3.10888e-06
1.07575e-05
4.87011e-06
1.64955e-05
3.0246e-06
8.05984e-06
6.703e-06
1.0877e-05
4.18978e-06
8.16106e-06
6.14143e-06
1.17902e-05
2.23114e-06
4.25176e-06
1.09915e-05
7.41467e-06
4.21871e-06
3.92484e-06
3.08766e-06
1.31268e-05
7.72627e-06
1.65404e-05
1.19037e-05
7.97564e-06
3.81683e-06
1.11001e-05
3.81317e-06
1.39137e-05
6.37414e-06
8.00975e-06
7.6712e-06
1.21135e-05
1.6399e-05
2.78633e-06
8.93599e-06
2.58087e-06
7.57362e-06
4.23241e-06
1.31286e-05
3.80168e-06
2.7746e-06
7.16776e-06
1.21307e-05
5.11765e-06
8.19728e-06
4.58094e-06
2.79503e-06
3.26126e-06
4.12443e-06
2.11915e-06
3.35177e-06
3.61669e-06
1.56838e-05
7.33679e-06
8.24695e-06
5.00369e-06
2.82625e-06
7.20276e-06
3.26815e-06
4.18751e-06
2.02785e-06
2.42152e-06
3.11835e-06
5.97459e-06
5.87101e-06
4.09374e-06
5.45463e-06
2.28825e-06
4.49759e-06
4.38192e-06
4.50892e-06
4.39234e-06
4.27273e-06
5.32031e-06
1.53201e-06
2.38869e-06
2.02885e-06
4.38798e-06
3.17972e-06
3.14298e-06
4.61567e-06
5.87645e-06
8.18088e-06
2.48341e-06
1.53815e-05
3.49683e-06
7.35227e-06
2.01314e-06
2.0408e-06
7.98183e-06
4.41293e-06
7.1389e-06
1.20123e-06
5.03343e-06
1.61257e-06
4.12601e-06
8.73748e-06
4.37849e-06
7.97173e-06
2.13557e-06
3.38137e-06
9.48623e-06
7.40262e-06
1.80226e-06
2.10222e-06
7.98889e-06
1.87983e-06
7.44814e-06
4.19782e-06
2.37156e-06
4.31705e-06
6.06441e-06
4.30905e-06
2.16843e-06
1.8986e-06
1.81294e-06
3.89762e-06
2.44299e-06
1.65628e-06
8.01374e-06
1.64513e-06
2.3931e-06
3.01363e-06
2.99431e-06
1.36541e-06
1.87293e-06
2.09622e-06
1.94762e-06
1.87618e-06
6.37913e-06
4.58628e-06
2.02767e-06
1.61999e-06
2.41284e-06
3.8865e-06
4.44973e-06
2.29839e-06
1.17349e-05
3.11811e-06
1.354e-06
3.45063e-06
1.81846e-06
2.9382e-06
1.37381e-06
2.41464e-06
2.10451e-06
2.63927e-06
2.14166e-06
1.7943e-06
3.19976e-06
1.36989e-06
2.43489e-06
2.08158e-06
1.3601e-06
2.17203e-06
1.89924e-06
3.16996e-06
2.6119e-06
2.37677e-06
1.60225e-06
1.90684e-06
5.49206e-06
1.87878e-06
3.14313e-06
2.97301e-06
1.18454e-06
1.89263e-06
2.04166e-06
2.73572e-06
2.42405e-06
3.23083e-06
3.19752e-06
3.2142e-06
1.94492e-06
1.61196e-06
1.86876e-06
3.22435e-06
2.1114e-06
2.96917e-06
6.15288e-06
2.3097e-06
2.39729e-06
2.38029e-06
2.64508e-06
1.66557e-06
1.82377e-06
2.06583e-06
5.73271e-06
2.08467e-06
2.18324e-06
2.43522e-06
3.1188e-06
3.17316e-06
2.05447e-06
1.9592e-06
3.05718e-06
6.44327e-06
2.08796e-06
2.72615e-06
2.15709e-06
1.86812e-06
2.0028e-06
2.10999e-06
2.88994e-06
2.3222e-06
2.3979e-06
1.97629e-06
6.4127e-06
2.16225e-06
3.29198e-06
2.10223e-06
2.66566e-06
1.94415e-06
2.91865e-06
2.58116e-06
2.11703e-06
2.09534e-06
1.91719e-06
7.06046e-06
2.25203e-06
2.06378e-06
6.28159e-06
2.12147e-06
2.90924e-06
2.12921e-06
6.4487e-06
1.41701e-06
2.0682e-06
6.58062e-06
2.52584e-06
2.39732e-06
7.42191e-07
2.22368e-06
7.06751e-07
7.00657e-07
8.93749e-07
2.53536e-06
2.26535e-06
1.33607e-06
7.84725e-07
2.32303e-06
6.06694e-07
6.68276e-07
6.84307e-07
2.51242e-06
2.31629e-06
7.8367e-07
6.80839e-07
6.22692e-06
6.7471e-07
6.65305e-07
7.01158e-07
1.8232e-06
1.90695e-06
6.86722e-07
7.04792e-07
1.86445e-06
2.28572e-06
6.8045e-07
7.16005e-07
1.82373e-06
6.01079e-07
2.02791e-06
7.4579e-07
5.74423e-07
1.80052e-06
1.454e-06
2.2702e-06
1.80636e-06
2.15356e-06
1.79089e-06
1.79456e-06
6.8231e-07
2.24737e-06
1.45239e-06
1.79556e-06
6.97875e-07
6.24265e-07
6.62717e-07
1.44627e-06
1.40138e-06
2.15258e-06
1.82851e-06
1.3994e-06
1.43932e-06
2.19226e-06
6.97732e-07
1.77726e-06
1.79162e-06
6.54258e-07
7.3397e-07
2.34895e-06
7.10392e-07
6.56982e-07
6.26314e-07
2.18926e-06
6.12493e-07
6.03901e-07
5.92831e-07
5.12031e-07
5.11667e-07
4.9467e-07
4.97016e-07
4.96269e-07
5.33079e-07
4.94191e-07
4.97855e-07
4.86862e-07
4.90626e-07
4.94649e-07
4.94954e-07
4.91922e-07
4.89615e-07
4.96354e-07
4.95189e-07
4.82188e-07
1.10854e-06
5.3299e-07
5.44763e-07
5.36655e-07
5.15417e-07
5.01772e-07
5.53774e-07
5.53774e-07
5.53774e-07
5.53774e-07
5.53774e-07
5.53774e-07
5.50785e-07
5.50785e-07
7.45291e-07
7.11668e-07
4.9897e-07

NodalForce_(N) 3 343 double
-2.44412e-07 4.90177e-08 -1.92e-08
-1.95564e-06 6.41475e-07 -4.14561e-07
0.000409206 8.75025e-05 0.000598894
-3.80628e-07 8.17005e-07 -4.50705e-07
1.34242e-06 3.70323e-06 -2.15381e-06
1.04863e-06 3.40634e-06 -2.45798e-06
-2.27795e-06 8.42871e-06 -6.29762e-06
-2.3542e-06 4.12267e-06 -3.02377e-06
1.52988e-06 4.89046e-06 -3.49995e-06
-7.6301e-07 1.82405e-06 -1.28879e-06
1.72655e-06 1.14289e-06 -7.71597e-07
4.76851e-06 5.23153e-06 -3.49535e-06
2.74571e-06 1.91442e-06 -1.02688e-06
1.78682e-06 6.73854e-07 -5.60937e-07
1.31657e-06 9.35505e-07 -8.07317e-07
-1.78087e-06 5.31371e-06 -4.22924e-06
-2.32395e-06 3.76417e-06 -2.80967e-06
4.83646e-07 6.46394e-07 -3.91917e-07
0.000693957 0.000710915 0.000233134
-2.02305e-07 1.4061e-07 -6.519e-08
-1.06132e-06 4.52556e-06 -3.13262e-06
1.87615e-06 1.13648e-05 -7.73467e-06
0.0016851 -0.00054874 0.000271758
-5.95608e-07 1.57484e-06 -1.01702e-06
-6.21441e-07 5.02173e-06 -3.57374e-06
-1.63903e-06 1.70542e-06 -1.60645e-06
3.29495e-07 7.76306e-08 -6.64524e-08
5.28844e-07 1.50408e-06 -9.6679e-07
-1.209e-06 2.23266e-07 -2.70948e-07
-2.81143e-06 3.23509e-07 -3.64926e-07
-3.41348e-06 1.40798e-06 -1.69939e-06
-6.50237e-06 1.49212e-05 -1.18906e-05
1.28093e-06 1.0751e-05 -8.45807e-06
-2.935e-06 7.85033e-06 -6.04129e-06
-4.37845e-06 5.26144e-06 -3.8905e-06
-7.49029e-06 9.00778e-06 -6.66446e-06
-4.64267e-06 4.16755e-06 -2.93074e-06
-1.54569e-05 1.26304e-05 -9.85698e-06
8.13361e-07 1.09808e-06 -7.36923e-07
1.87206e-06 2.11616e-06 -2.03624e-06
1.91133e-06 2.16087e-06 -9.69741e-07
-2.62397e-06 4.23627e-06 -3.53047e-06
-1.14141e-06 6.27969e-07 -3.69545e-07
-8.45049e-07 3.44707e-07 -1.58021e-07
-3.0309e-06 1.96716e-06 -1.12016e-06
0.00114972 0.000108108 -0.000369418
-6.92659e-07 2.29831e-07 -1.27305e-07
0.000292758 0.000686893 -0.000537197
-1.26501e-07 6.01868e-07 -5.1478e-07
1.71792e-07 7.92525e-08 -5.23623e-08
-9.03049e-08 2.01801e-06 -1.75449e-06
5.75671e-08 3.62146e-06 -3.25673e-06
-1.74924e-06 3.03681e-07 -2.71365e-07
-6.72935e-07 4.30741e-07 -3.32137e-07
-3.78832e-07 1.79203e-07 -1.27281e-07
-6.87073e-07 6.23098e-06 -4.83457e-06
0.000943336 -0.000229159 8.39503e-05
-5.49924e-07 9.31294e-08 -6.06144e-08
0.00192119 -0.000577235 0.000632105
-1.09365e-06 2.87285e-06 -2.22018e-06
7.89585e-07 3.70284e-07 -4.29467e-07
1.96533e-07 5.43351e-06 -3.79311e-06
-2.75926e-06 1.64515e-05 -1.15094e-05
-1.45585e-06 7.71522e-06 -5.61786e-06
1.24619e-06 2.17772e-06 -9.74943e-07
-7.43732e-07 4.33399e-08 -4.33076e-08
9.40074e-07 5.1536e-07 -1.90949e-07
1.76825e-06 3.83078e-06 -3.2623e-06
-2.91833e-06 4.44772e-06 -3.34321e-06
1.54598e-06 5.08411e-06 -3.3698e-06
-5.21981e-07 3.44313e-07 -3.10216e-07
8.23826e-07 3.51604e-07 -2.71718e-07
6.31936e-07 5.92609e-07 -2.30121e-07
3.2275e-07 1.7028e-06 -1.58638e-06
-2.51168e-07 7.52125e-07 -4.664e-07
0.00154606 -0.000236399 -0.000507327
-4.78621e-07 1.86092e-06 -1.29068e-06
-1.92829e-07 4.18942e-08 -3.19361e-08
-5.48636e-07 2.28849e-06 -1.99469e-06
-2.12737e-06 2.47866e-06 -1.99448e-06
-1.49352e-06 1.31285e-06 -1.03303e-06
-3.22768e-07 1.17079e-06 -9.94481e-07
-3.78132e-06 5.83496e-06 -4.39057e-06
-1.33831e-06 5.1384e-07 -4.29397e-07
0.00122745 0.00026254 0.00028061
-4.16252e-07 2.4524e-09 -1.45985e-08
0.00122314 -0.000223959 -0.000220203
0.00159477 -0.000271733 -0.000498879
0.00101238 0.000850837 -0.000559896
-8.67341e-07 2.61921e-07 -2.65925e-07
1.38019e-07 6.50802e-08 -6.94907e-08
-1.15491e-06 2.03236e-06 -1.58738e-06
-7.71423e-08 1.01828e-06 -1.29766e-06
1.53002e-06 1.93921e-06 -1.48508e-06
8.42254e-06 1.58244e-05 -1.09031e-05
9.17981e-07 3.08032e-06 -1.92166e-06
8.04259e-07 4.69375e-06 -2.91594e-06
-5.58609e-07 2.90891e-06 -2.11905e-06
0.00181715 0.000860699 -1.70862e-05
-3.80441e-06 4.71954e-06 -3.3318e-06
-8.21555e-07 2.8289e-06 -1.99693e-06
-2.26255e-06 4.10992e-06 -3.27995e-06
-4.53915e-07 2.05084e-07 -1.01493e-07
-5.07041e-06 5.50859e-06 -3.87375e-06
-1.58911e-07 2.41308e-07 -1.52328e-07
5.41813e-07 2.84698e-06 -1.95325e-06
-6.77602e-06 5.05313e-06 -3.58053e-06
2.49976e-06 5.28328e-06 -3.458e-06
3.1218e-06 5.27861e-06 -3.21379e-06
1.76733e-07 1.79904e-08 -3.11457e-08
-3.73549e-06 2.45936e-06 -2.1436e-06
-6.72543e-06 3.59567e-06 -2.98746e-06
-4.9165e-06 3.49732e-06 -3.25316e-06
0.000528933 0.000373439 -0.000573663
-2.90024e-07 3.17462e-06 -2.2331e-06
1.07963e-07 2.20008e-07 -1.92577e-07
-2.41298e-06 2.58822e-06 -1.96537e-06
-4.50788e-06 7.41154e-06 -5.58814e-06
-4.94504e-06 2.47386e-06 -1.84033e-06
1.64398e-06 2.09411e-06 -1.22574e-06
1.11394e-06 6.46812e-06 -4.48289e-06
3.13399e-07 6.301e-06 -4.63214e-06
4.32357e-07 1.28549e-07 -5.95766e-08
0.00146355 0.00015389 0.000448536
2.06894e-07 6.32881e-08 -2.7218e-09
-1.13912e-06 2.45435e-06 -1.8685e-06
-4.33204e-06 1.99134e-06 -1.76303e-06
0.00170205 0.000410052 -0.000887228
9.94944e-09 2.97659e-08 -2.91613e-08
-4.00128e-06 2.04223e-06 -1.17993e-06
-1.32723e-06 1.81917e-06 -1.32637e-06
-1.67452e-06 3.25601e-06 -2.50503e-06
2.14279e-06 1.81951e-06 -1.30905e-06
1.22031e-06 2.29707e-06 -1.93388e-06
0.00137352 -0.000232767 0.000414428
-1.96415e-07 1.53382e-08 -1.78317e-08
0.00144328 -0.000272987 0.000442277
3.25131e-07 2.40769e-06 -1.61507e-06
-1.93858e-06 2.54908e-06 -1.95672e-06
-5.57982e-06 6.45114e-06 -4.99825e-06
6.47104e-07 4.66403e-06 -3.80454e-06
1.63191e-06 1.94092e-06 -1.36018e-06
1.24945e-06 1.99592e-06 -1.26928e-06
1.13924e-06 3.62979e-06 -2.50898e-06
0.000979168 0.000592961 -0.000794324
3.53543e-06 3.05402e-06 -1.84424e-06
6.4692e-07 9.11526e-07 -4.26648e-07
-6.89058e-06 1.08789e-05 -8.24781e-06
-1.89359e-06 4.38906e-06 -3.25942e-06
-6.40839e-07 4.16101e-07 -2.23256e-07
-1.60385e-06 4.38249e-07 -2.09005e-07
8.88346e-08 3.54954e-08 -2.04755e-08
0.00222246 0.000629823 -3.99977e-06
-4.64086e-07 1.86836e-06 -1.42282e-06
-2.79992e-06 1.87267e-06 -1.25784e-06
-5.30072e-07 1.77376e-06 -1.46088e-06
0.00152147 1.3613e-05 -0.000670242
0.000918337 0.000850206 0.00182061
3.14677e-07 1.174e-06 -1.07416e-06
4.50721e-07 4.55706e-06 -3.32293e-06
6.64663e-07 5.46584e-07 -2.29658e-07
-4.80247e-07 2.46061e-07 -1.75851e-07
-5.5811e-07 2.02588e-06 -1.45678e-06
1.03394e-07 6.16671e-07 -6.12362e-07
-8.55768e-07 2.94011e-06 -2.29022e-06
-2.58877e-07 1.98123e-06 -1.615e-06
-1.46165e-06 2.44627e-06 -1.95002e-06
-1.17117e-06 2.99919e-07 -4.21445e-07
-3.24934e-06 1.99023e-06 -1.66062e-06
-2.26154e-06 1.42954e-06 -1.05962e-06
-1.70519e-06 8.93699e-07 -8.62189e-07
-3.61776e-06 3.72174e-06 -2.91267e-06
1.40615e-07 1.91155e-06 -1.29168e-06
4.64032e-07 2.89636e-07 -4.18073e-07
5.4043e-07 6.47285e-07 -8.35267e-07
3.63025e-07 2.88634e-07 -3.37211e-07
-1.11698e-06 1.66859e-06 -1.27708e-06
6.91366e-07 3.32963e-07 -1.20016e-07
-2.02856e-06 3.75847e-06 -2.82641e-06
0.00188348 -9.65855e-05 0.000276911
5.49213e-07 4.48788e-06 -3.40183e-06
-2.41906e-06 3.47808e-06 -2.74013e-06
-1.5225e-06 4.70967e-06 -3.40762e-06
0.00145252 -0.000252881 -0.000253278
-2.95051e-08 1.63828e-07 -1.53217e-07
1.64056e-06 1.89921e-06 -1.17805e-06
2.09905e-06 3.55612e-06 -2.63452e-06
8.25152e-07 2.38004e-06 -1.85379e-06
-2.01032e-06 1.57412e-06 -9.27265e-07
-2.63691e-06 2.29809e-06 -1.53161e-06
-1.93807e-06 1.22466e-06 -7.08265e-07
-1.73736e-06 1.83453e-06 -1.22148e-06
1.58227e-07 1.72573e-07 -3.41617e-07
-1.15158e-06 6.1711e-07 -6.94632e-07
3.96824e-07 3.37422e-07 -1.15731e-07
5.91731e-07 4.22746e-07 -1.55486e-07
-1.5748e-06 2.9302e-06 -2.207e-06
-3.15743e-06 1.13636e-06 -1.01552e-06
-8.58812e-07 2.91144e-06 -2.17099e-06
-1.84494e-06 1.38512e-06 -1.25958e-06
-3.46952e-06 2.69909e-06 -1.93239e-06
0.00161227 -0.000406307 -0.000130577
-4.46004e-07 4.21968e-08 -1.73484e-08
0.00135223 -0.000580722 9.77535e-05
-1.63997e-06 5.69135e-07 -5.13326e-07
-2.52028e-06 9.79195e-07 -6.66185e-07
-2.17017e-06 2.0885e-06 -1.87176e-06
-1.48218e-06 1.6445e-06 -1.3716e-06
9.8551e-07 1.73131e-06 -9.1878e-07
1.13652e-06 1.37393e-06 -6.87383e-07
-3.16488e-07 2.93629e-08 2.5339e-09
-1.02583e-06 2.30851e-06 -1.73734e-06
-1.40211e-07 2.91187e-06 -2.19677e-06
-2.78318e-06 2.30495e-06 -1.52042e-06
1.10885e-06 1.17322e-06 -1.02324e-06
2.62421e-07 3.41039e-07 -1.8217e-07
8.52397e-07 2.88555e-06 -2.08216e-06
-4.17264e-07 3.75677e-07 -2.98614e-07
-1.20032e-06 1.10841e-06 -1.02746e-06
-3.38007e-06 3.26618e-06 -2.72821e-06
-1.15365e-06 1.02708e-06 -6.89191e-07
-5.42355e-07 3.7006e-06 -2.77066e-06
-1.84169e-06 9.5649e-07 -5.96386e-07
1.39137e-06 2.63554e-06 -1.61339e-06
-1.044e-06 3.22593e-07 -1.31283e-07
0.00159446 0.000264977 0.000784396
7.498e-08 5.55638e-07 -6.15079e-07
1.21548e-06 1.14615e-06 -6.0353e-07
-1.17669e-06 1.0348e-06 -7.09848e-07
-1.35007e-06 7.11557e-07 -3.41e-07
8.05123e-07 8.35389e-07 -3.31867e-07
-3.72246e-07 9.13809e-07 -7.20992e-07
0.00211696 -0.00143316 8.96699e-05
0.0018035 0.000683018 -0.00114391
-1.39518e-06 6.55548e-07 -7.79682e-07
-2.62035e-06 2.03807e-06 -1.5734e-06
3.3992e-07 8.41913e-07 -4.91338e-07
-1.11107e-06 2.81992e-06 -2.13623e-06
-1.34905e-06 9.46847e-07 -6.52772e-07
6.92575e-07 1.10767e-06 -1.13669e-06
-2.31211e-06 3.30954e-06 -2.5317e-06
0.000912301 0.000724505 8.57525e-05
-2.95067e-06 2.33572e-06 -1.92436e-06
6.54481e-09 2.27554e-07 -1.49284e-07
0.000941984 -7.22171e-05 -0.000974234
-2.23448e-07 4.03049e-07 -3.43178e-07
0.00221298 -0.00108502 0.000115438
-2.88615e-06 3.08153e-06 -2.3988e-06
-1.73744e-06 1.83818e-06 -1.47303e-06
0.000743236 -0.00109928 0.000180278
-7.49893e-07 9.64695e-07 -8.18003e-07
0.000766809 0.00119773 -4.77703e-05
1.22593e-07 1.03885e-06 -7.09866e-07
-7.03072e-07 9.74965e-07 -7.03422e-07
-1.72833e-06 5.70662e-07 -6.63471e-07
-1.60952e-07 3.31297e-06 -2.42004e-06
-8.1256e-09 4.4721e-07 -3.03294e-07
0.000597288 -0.000225441 0.00078492
1.06372e-07 1.13405e-06 -7.04684e-07
5.29212e-07 3.58087e-07 -2.28127e-07
3.92508e-07 1.02606e-06 -6.85847e-07
0.000353944 -0.00051106 0.00103135
-2.91083e-06 2.09894e-06 -1.56807e-06
-2.86706e-06 2.64682e-06 -2.02206e-06
2.6702e-07 1.05976e-06 -7.19096e-07
-7.22442e-07 9.85341e-07 -7.79851e-07
-6.0603e-08 7.22339e-08 -1.74203e-08
0.000989325 0.000646261 -4.67862e-05
0.000602826 -0.000957848 0.000254515
0.000636086 -0.00100409 0.000191258
-2.81428e-06 2.0267e-06 -1.62125e-06
-8.65857e-07 8.55943e-07 -6.16174e-07
-1.42397e-06 6.42955e-07 -3.00552e-07
-6.30276e-08 1.0089e-06 -8.13095e-07
0.00081108 0.000440738 0.000187986
0.000439698 0.000389813 -0.000508023
1.64264e-07 6.06651e-08 -6.01878e-09
1.99184e-07 5.26158e-08 -3.06267e-08
-1.21696e-06 2.08983e-06 -1.59262e-06
-3.99048e-08 4.89224e-08 -3.01893e-08
0.000638622 -0.000127235 -0.000337757
-1.0341e-06 2.47485e-06 -1.91794e-06
-9.82408e-07 4.95889e-07 -3.81976e-07
-6.06318e-07 3.44017e-06 -2.41655e-06
-1.12756e-07 2.81929e-08 -4.83571e-08
-6.14265e-07 2.01848e-06 -1.59966e-06