# vtk DataFile Version 4.2
vtk output
ASCII
DATASET UNSTRUCTURED_GRID

POINTS 343 double
0.00112235 0.00419467 1.54934e-07
0.00217101 0.00498177 0.00217567
0 0.00419538 0.00112517
0.00192794 0.00195373 0.00194245
0.00516071 0.00240042 0.0050343
0.00516559 0.00382447 0.00639957
0.00761875 0.00476303 0.00500361
0.00622295 0.00484222 0.00369497
0.00682617 0.00327807 0.0069177
0.00498867 0.0049876 0.00500167
0.00416798 0.00111298 0.0100008
0.00526881 0.00207322 0.00790635
0.00417652 -1.28993e-05 0.0083186
0.00200871 0.00200185 0.00803362
0.00427622 0.00252844 0.010001
0.00695576 0.00643693 0.00695064
0.00641417 0.00617401 0.00518619
0.00225733 0.0021837 0.00514643
0 0.00143586 0.00417514
0.00159325 0.00346585 0.00403709
0.0068311 0.00318317 0.00316552
0.00773349 0.00219898 0.00506886
0 0.00270918 0.00154168
0.0041534 0.00142321 2.06262e-06
0.00500135 0.00218121 0.00220081
0.00396075 0.00352334 0.00160499
0.00134234 -8.93903e-07 0.00406019
0.00417413 -1.32363e-05 0.00169043
0.00262934 0.00695047 8.943e-07
0.00194003 0.00805228 0.00194523
0.00409032 0.00624525 0.001647
0.00800582 0.00797252 0.00800215
0.00795735 0.00480216 0.00802718
0.00838753 0.00606481 0.00595335
0.0100098 0.00880485 0.00419929
0.00758247 0.0076235 0.00496807
0.00858138 0.00996386 0.00417203
0.00798702 0.00795747 0.00202138
0.00353062 0.00303394 0.00696042
0.00443033 0.00365796 0.00832579
0.00388372 0.00159645 0.00597009
0.00500697 0.00766303 0.00767869
0.00198973 0.00800727 0.0079898
0.00283152 0.00999546 0.00712747
0.00392007 0.00839616 0.00595876
0 0.00695361 0.00262895
0.00164651 0.00623877 0.00408808
0 0.0040177 0.00850214
0.00231353 0.00498493 0.00766182
0.00143169 0.00417411 0.01
0.00717315 0.00710729 0.0100018
0.00611487 0.00596314 0.00842038
0.00205271 0.00794093 0.00474206
0.00304381 0.00694153 0.00646822
0.00158645 0.00607798 0.00592617
0.00998437 0.00576332 0.00832176
0 0.00718191 0.00711644
0.0015854 0.00577296 2.19936e-07
0 0.00577432 0.00158701
0.00999528 0.00713705 0.00712129
0.00286224 0.00334761 0.0100006
0.00995602 0.00138691 0.00418171
0.00802708 0.00192753 0.00198466
0.00838257 0.00348647 0.00400389
0.00371845 0.00164418 0.00412938
0.001511 0.00999953 0.00581508
0.00280059 -6.10894e-06 0.00712832
0.00610154 0.00416355 0.00837886
0.00999835 0.00722899 0.00420167
0.00851008 -3.97456e-05 0.00417337
0.00334062 0.00286718 1.31659e-06
0.00269293 0.00153684 0.0100005
0.00281079 -6.63565e-06 0.00283265
0.00479381 0.00518972 0.00755605
0.00315517 0.00314437 0.00316808
0 0.00849157 0.00581511
0.00486053 0.00366442 0.00378816
0.00153626 0.00270839 1.61437e-07
0.00580092 0.00830847 0.010001
0.00599194 0.00998105 0.00850788
0.00421876 0.00998978 0.00831878
0.00401863 0.00849442 0.0100002
0.0100058 0.00844635 0.00582023
0.00314869 0.006832 0.00315163
0 0.00748929 0.00137438
0.00137478 0.00748891 7.14136e-08
0 0.00287343 0.00335182
0 0.00580816 0.00831736
0 0.00429792 0.00253898
0.00253444 0.00429469 8.45928e-07
0.00143276 0.00581892 0.01
0.00517526 0.00646333 0.00640197
0.00360179 0.00650743 0.00823481
0.00691745 0.00260171 0.0100021
0.00798296 0.00192475 0.00803886
0.00692669 -2.91868e-05 0.00308618
0.00599059 0.00164318 0.0036159
0.00996701 0.00282603 0.00335872
0 0.00140616 0.00256446
0.00637788 0.00820789 0.00642312
0.00578945 0.00141408 3.93751e-06
0.0060187 0.00353254 0.00160692
0.00316196 0.00999397 0.00582582
0.00857454 0.00996411 0.00583703
0.00255121 0.00140084 9.309e-07
0.00593753 -2.30012e-05 0.00149845
0.00628808 0.00826803 0.00362007
0.00850353 -3.94491e-05 0.00583788
0.00617348 0.00165095 0.00636757
0.00139992 0.0025639 0.0100001
0.00712063 0.00715686 4.7001e-06
0.00517181 0.0076765 0.0021713
0.00594025 0.00607667 0.00160529
0 0.00686719 0.00578184
0.0099571 0.00135689 0.00257179
0.00177042 0.00360943 0.0064081
0.0100086 0.00844116 0.00263024
0.00840517 0.00615558 0.00413742
0.00599722 0.00997995 0.00149694
0.00692237 -2.88651e-05 0.00692917
0.00995469 0.00138681 0.00582541
0.00837014 0.00353856 0.00606507
0.00149849 -1.20728e-06 0.00581532
0 0.0013659 0.00748679
0.0013605 -1.07403e-06 0.00752895
0.00999405 0.00682225 0.00578709
0.00582691 0.00847353 3.44191e-06
0 0.0075208 0.00859127
0.00136458 0.0074862 0.00999999
0.00423594 0.00819639 0.00362937
0.00860604 0.00996383 0.00751556
0.0100055 0.00858524 0.00753086
0.00573935 0.00156698 0.0100014
0.0072348 0.0041623 0.0100022
0 0.0057735 0.00666667
0.00137144 0.00999945 0.00752904
0 0.00863025 0.00752641
0.00853804 -4.04892e-05 0.00251358
0.00999734 0.00690822 0.0026356
0.00845517 0.00630779 0.00216826
0.0084939 0.00579001 0.0100028
0.00744655 0.00134319 0.0100023
0.00853486 -3.99533e-05 0.00751561
0.00995279 0.00131726 0.0074917
0 0.00143551 0.00581971
0.00593318 -2.24219e-05 0.00850754
0.00418214 -1.34315e-05 0.0034016
0.00791957 0.0046765 0.00203953
0.00997796 0.00425157 0.00254591
0.00423804 0.00998933 0.00666723
0.00284245 0.00999547 0.00283243
0.00130443 -9.73644e-07 0.00241849
0 0.00727418 0.00419576
0.00998526 0.00572852 0.00667162
0.00699146 0.00997405 0.00308489
0.00751116 0.00860913 0.0100021
0 0.00574334 0.00336387
0 0.0043297 0.00416652
0.00685645 0.00576185 0.010002
0.00996508 0.00297543 0.00692034
0.004193 -1.32076e-05 0.00666768
0.0024833 0.00999615 0.00861181
0.00745095 0.0013338 5.62775e-06
0.00576756 0.00665089 0.0100011
0.00999667 0.00747611 0.00859535
0.00860491 0.0075191 0.0100028
0.00689142 0.00299618 5.13485e-06
0.00336163 0.00573868 1.58216e-06
0.00753991 0.00860162 4.99094e-06
0.00753564 0.00997006 0.00139177
0.00578423 0.00685055 3.51021e-06
0.00697168 0.00634733 0.00303704
0.00746836 -3.34722e-05 0.00139325
0.00287703 0.0049958 0.0100005
0.0043211 0.00582541 0.0100007
0.00431438 0.00415796 0.0100009
0.00752988 0.00997095 0.00861851
0.00245683 -5.2716e-06 0.00861201
0.00998772 0.00569785 0.00337037
0 0.00302218 0.00691532
0.009971 0.00397208 0.00850659
0.00848227 0.00398147 6.53975e-06
0.00996737 0.00266117 0.00154921
0 0.00244495 0.00857025
0.00244613 0.0085667 0.01
0.00746307 -3.28603e-05 0.00861812
0.00844921 0.00258775 0.0100028
0.00882365 0.00415666 0.0100031
0.00568414 0.00998216 0.00583474
0.0051883 0.00757023 0.00503382
0.00565769 0.00998206 0.00421701
0.00698695 0.00997459 0.00692867
0.00301897 0.00691218 0.0100002
0.00415809 0.00432125 2.48044e-06
0.00281358 -6.93978e-06 0.00440545
0.00312817 -7.78294e-06 0.00582634
0.00997844 0.00414859 0.00113272
0.00364344 0.00833017 0.00158977
0.00997685 0.00428363 0.00417288
0.00666152 0.00575142 4.64407e-06
0.00860965 0.00996327 0.00251198
0 0.00848692 0.00262374
0.0013535 0.00999945 0.00405992
0 0.00885053 0.00419359
0.00420393 0.00884 2.20387e-06
0.00421869 0.00998895 0.00168938
0.00498927 0.00477962 0.00238124
0.00720519 0.00449502 5.30427e-06
0.00560209 -2.11492e-05 0.00421822
0.0056286 -2.10882e-05 0.00583535
0.00131535 0.00999946 0.00241807
0.00853907 0.00240686 6.71603e-06
0.0099757 0.00447624 0.0072244
0.00713215 0.00997348 0.00500295
0.00571893 0.00334696 0.0100015
0.00243977 -5.2715e-06 0.00135745
0.00995956 0.00239749 0.00857485
0.00239057 0.00478883 0.00500036
0.00582013 0.00431242 4.14646e-06
0.00831071 0.0057744 6.09313e-06
0.00549209 0.00998351 0.00722185
0.00997538 0.00428432 0.00583886
0.0054188 0.00998318 0.00277753
0.00706664 -2.98008e-05 0.00500401
0.00284423 0.0099955 0.00440475
0 0.00452174 0.00721958
0.00451861 0.00721062 0.0100006
0.00543761 -1.97085e-05 0.00722165
0.00359699 0.00506821 0.00359741
0.00426404 0.00998917 0.00500901
0.00421773 -1.34773e-05 0.0050099
0.00366415 0.00521121 0.00617534
0 0.005744 0.00499998
0 0.00433013 0.00583333
0.0049964 0.0057325 3.268e-06
0.00498213 0.00632763 0.00355565
0.00536413 -1.99047e-05 0.00277901
0.00998637 0.00569882 0.00500572
0.00368809 0.00640218 0.00484462
0.00572887 0.00498485 0.0100014
0.00998951 0.00572849 0.0015942
0 0.00666667 0
0.00859667 0.00748535 6.01492e-06
0.00330995 -1.03917e-05 2.58377e-06
0 0.01 0.00666667
0.00501042 0.00998541 0.0100012
0 0.00288419 0.00499914
0.0100024 0.00744374 0.00138151
0.00999755 0.00662087 7.53312e-06
0 0.005 0.01
0.00498034 0.00286979 3.07879e-06
0 0.005 0
0.00994632 -5.04888e-05 0.00334054
0.0100162 0.0099536 0.00667122
0.00419917 0.00726555 2.29366e-06
0.00996553 0.00283718 0.00500522
0.00496669 -1.87325e-05 3.93783e-06
0 0 0.00666667
0.00378622 0.00360994 0.00522718
0.00496146 -1.78839e-05 0.0100005
0.00994363 -5.0029e-05 0.00667191
0 0 0.005
0.00880197 0.00996166 0.00122567
0.010012 0.00873366 0.00122704
0.00994492 -5.0148e-05 0.00500625
0.00998532 0.00495348 7.81971e-06
0.00121428 0.00121872 4.22606e-08
0 0.00122008 0.00122008
0 0.00333333 0.01
0 0.00666667 0.01
0.00879426 0.00874236 5.94646e-06
0.0100191 0.00995311 0.00333916
0.00422813 0.00998907 0.00340056
0.00998925 0.00662218 0.0100041
0 0.00333333 0
0 0.00122008 0.00877992
0.00121189 -1.39436e-06 0.00877966
0.00121371 0.00121918 0.0100002
0.00879547 0.00996237 0.00878337
0.00121992 0.00877913 0.00999994
0 0.00877992 0.00877992
0.0100058 0.0087347 0.00878405
0.00668826 0.00997534 3.65738e-06
0.00995677 0.00117025 0.00122799
0.00122182 0.00999914 0.00878042
0.00878608 0.00874329 0.010003
0.00997698 0.00495486 0.0100041
0 0 0.00333333
0.00662466 -2.8262e-05 5.63866e-06
0.00872997 -4.2304e-05 0.00122734
0.00120371 -1.34712e-06 0.00121254
0 0.00877992 0.00122008
0.00122157 0.00877919 2.28536e-07
0.00121424 0.0099992 0.00121145
0.00995057 0.00117115 0.0087842
0.00873154 0.00117972 0.0100029
0.00661822 -2.73797e-05 0.0100011
0.00873957 0.00117876 7.0986e-06
0.00872398 -4.15273e-05 0.00878282
0.00997329 0.00328572 8.02455e-06
0.0033407 0.00999226 0.0100009
0.00246744 0.00999637 0.00135687
0.00668063 0.00997622 0.0100022
0.00996483 0.00328723 0.0100041
0 0.01 0.005
0.00262895 0.00848325 9.8389e-07
0.0100176 0.00995336 0.00500526
0 0.01 0.00333333
0 0.00166667 0
0.00994771 -5.09316e-05 0.00167472
0 0.00166667 0.01
0 0.00833333 0
0.0100098 0.00828714 7.15308e-06
0.00994231 -5.02219e-05 0.00833755
0.0100206 0.00995278 0.00167329
0.0100149 0.00995364 0.00833768
0.00167033 0.00999749 0.0100003
0 0.01 0.00833333
0.00835647 0.00996444 5.33492e-06
0.00828574 -3.96964e-05 7.01968e-06
0.00827808 -3.88639e-05 0.0100023
0.00834799 0.00996508 0.010003
0 0 0.00833333
0.0100016 0.0082883 0.010004
0.00165434 -3.50621e-06 7.10049e-07
0 0 0.00166667
0.00334665 0.00999272 1.35945e-06
0.00995279 0.00161799 0.010004
0.00996107 0.00161705 8.17493e-06
0.00165382 -2.9478e-06 0.0100004
0.0016725 0.00999805 4.31347e-07
0 0.01 0.00166667
0.0100137 0.00995355 0.0100042
0 0 0.01
0.010022 0.0099526 6.73899e-06
0.00994085 -5.0347e-05 0.0100035
0 0.01 0.01
0.009949 -5.13745e-05 8.57917e-06
0 0.01 0
0 0 0
0.00501797 0.00998462 2.43969e-06
0.00330652 -9.25902e-06 0.0100001
0 0.00833333 0.01

CELLS 343 686
1 0
1 1
1 2
1 3
1 4
1 5
1 6
1 7
1 8
1 9
1 10
1 11
1 12
1 13
1 14
1 15
1 16
1 17
1 18
1 19
1 20
1 21
1 22
1 23
1 24
1 25
1 26
1 27
1 28
1 29
1 30
1 31
1 32
1 33
1 34
1 35
1 36
1 37
1 38
1 39
1 40
1 41
1 42
1 43
1 44
1 45
1 46
1 47
1 48
1 49
1 50
1 51
1 52
1 53
1 54
1 55
1 56
1 57
1 58
1 59
1 60
1 61
1 62
1 63
1 64
1 65
1 66
1 67
1 68
1 69
1 70
1 71
1 72
1 73
1 74
1 75
1 76
1 77
1 78
1 79
1 80
1 81
1 82
1 83
1 84
1 85
1 86
1 87
1 88
1 89
1 90
1 91
1 92
1 93
1 94
1 95
1 96
1 97
1 98
1 99
1 100
1 101
1 102
1 103
1 104
1 105
1 106
1 107
1 108
1 109
1 110
1 111
1 112
1 113
1 114
1 115
1 116
1 117
1 118
1 119
1 120
1 121
1 122
1 123
1 124
1 125
1 126
1 127
1 128
1 129
1 130
1 131
1 132
1 133
1 134
1 135
1 136
1 137
1 138
1 139
1 140
1 141
1 142
1 143
1 144
1 145
1 146
1 147
1 148
1 149
1 150
1 151
1 152
1 153
1 154
1 155
1 156
1 157
1 158
1 159
1 160
1 161
1 162
1 163
1 164
1 165
1 166
1 167
1 168
1 169
1 170
1 171
1 172
1 173
1 174
1 175
1 176
1 177
1 178
1 179
1 180
1 181
1 182
1 183
1 184
1 185
1 186
1 187
1 188
1 189
1 190
1 191
1 192
1 193
1 194
1 195
1 196
1 197
1 198
1 199
1 200
1 201
1 202
1 203
1 204
1 205
1 206
1 207
1 208
1 209
1 210
1 211
1 212
1 213
1 214
1 215
1 216
1 217
1 218
1 219
1 220
1 221
1 222
1 223
1 224
1 225
1 226
1 227
1 228
1 229
1 230
1 231
1 232
1 233
1 234
1 235
1 236
1 237
1 238
1 239
1 240
1 241
1 242
1 243
1 244
1 245
1 246
1 247
1 248
1 249
1 250
1 251
1 252
1 253
1 254
1 255
1 256
1 257
1 258
1 259
1 260
1 261
1 262
1 263
1 264
1 265
1 266
1 267
1 268
1 269
1 270
1 271
1 272
1 273
1 274
1 275
1 276
1 277
1 278
1 279
1 280
1 281
1 282
1 283
1 284
1 285
1 286
1 287
1 288
1 289
1 290
1 291
1 292
1 293
1 294
1 295
1 296
1 297
1 298
1 299
1 300
1 301
1 302
1 303
1 304
1 305
1 306
1 307
1 308
1 309
1 310
1 311
1 312
1 313
1 314
1 315
1 316
1 317
1 318
1 319
1 320
1 321
1 322
1 323
1 324
1 325
1 326
1 327
1 328
1 329
1 330
1 331
1 332
1 333
1 334
1 335
1 336
1 337
1 338
1 339
1 340
1 341
1 342

CELL_TYPES 343
1
1
1
1
1
1
1
1
1
1
1
1
1
1
1
1
1
1
1
1
1
1
1
1
1
1
1
1
1
1
1
1
1
1
1
1
1
1
1
1
1
1
1
1
1
1
1
1
1
1
1
1
1
1
1
1
1
1
1
1
1
1
1
1
1
1
1
1
1
1
1
1
1
1
1
1
1
1
1
1
1
1
1
1
1
1
1
1
1
1
1
1
1
1
1
1
1
1
1
1
1
1
1
1
1
1
1
1
1
1
1
1
1
1
1
1
1
1
1
1
1
1
1
1
1
1
1
1
1
1
1
1
1
1
1
1
1
1
1
1
1
1
1
1
1
1
1
1
1
1
1
1
1
1
1
1
1
1
1
1
1
1
1
1
1
1
1
1
1
1
1
1
1
1
1
1
1
1
1
1
1
1
1
1
1
1
1
1
1
1
1
1
1
1
1
1
1
1
1
1
1
1
1
1
1
1
1
1
1
1
1
1
1
1
1
1
1
1
1
1
1
1
1
1
1
1
1
1
1
1
1
1
1
1
1
1
1
1
1
1
1
1
1
1
1
1
1
1
1
1
1
1
1
1
1
1
1
1
1
1
1
1
1
1
1
1
1
1
1
1
1
1
1
1
1
1
1
1
1
1
1
1
1
1
1
1
1
1
1
1
1
1
1
1
1
1
1
1
1
1
1
1
1
1
1
1
1
1
1
1
1
1
1
1
1
1
1
1
1
1
1
1
1
1
1
1
1
1
1
1
1
1
1
1
1
1
1
1
1
1
1
1
1

POINT_DATA 343
FIELD FieldData 3

ExternalForceID_(#) 1 343 int
0
1
2
3
4
5
6
7
8
9
10
11
12
13
14
15
16
17
18
19
20
21
22
23
24
25
26
27
28
29
30
31
32
33
34
35
36
37
38
39
40
41
42
43
44
45
46
47
48
49
50
51
52
53
54
55
56
57
58
59
60
61
62
63
64
65
66
67
68
69
70
71
72
73
74
75
76
77
78
79
80
81
82
83
84
85
86
87
88
89
90
91
92
93
94
95
96
97
98
99
100
101
102
103
104
105
106
107
108
109
110
111
112
113
114
115
116
117
118
119
120
121
122
123
124
125
126
127
128
129
130
131
132
133
134
135
136
137
138
139
140
141
142
143
144
145
146
147
148
149
150
151
152
153
154
155
156
157
158
159
160
161
162
163
164
165
166
167
168
169
170
171
172
173
174
175
176
177
178
179
180
181
182
183
184
185
186
187
188
189
190
191
192
193
194
195
196
197
198
199
200
201
202
203
204
205
206
207
208
209
210
211
212
213
214
215
216
217
218
219
220
221
222
223
224
225
226
227
228
229
230
231
232
233
234
235
236
237
238
239
240
241
242
243
244
245
246
247
248
249
250
251
252
253
254
255
256
257
258
259
260
261
262
263
264
265
266
267
268
269
270
271
272
273
274
275
276
277
278
279
280
281
282
283
284
285
286
287
288
289
290
291
292
293
294
295
296
297
298
299
300
301
302
303
304
305
306
307
308
309
310
311
312
313
314
315
316
317
318
319
320
321
322
323
324
325
326
327
328
329
330
331
332
333
334
335
336
337
338
339
340
341
342

ExternalForceType_(0/1/2/3/4) 1 343 int
0
0
0
0
0
0
0
0
0
0
0
0
0
0
0
0
0
0
0
0
0
0
0
0
0
0
0
0
0
0
0
0
0
0
0
0
0
0
0
0
0
0
0
0
0
0
0
0
0
0
0
0
0
0
0
0
0
0
0
0
0
0
0
0
0
0
0
0
0
0
0
0
0
0
0
0
0
0
0
0
0
0
0
0
0
0
0
0
0
0
0
0
0
0
0
0
0
0
0
0
0
0
0
0
0
0
0
0
0
0
0
0
0
0
0
0
0
0
0
0
0
0
0
0
0
0
0
0
0
0
0
0
0
0
0
0
0
0
0
0
0
0
0
0
0
0
0
0
0
0
0
0
0
0
0
0
0
0
0
0
0
0
0
0
0
0
0
0
0
0
0
0
0
0
0
0
0
0
0
0
0
0
0
0
0
0
0
0
0
0
0
0
0
0
0
0
0
0
0
0
0
0
0
0
0
0
0
0
0
0
0
0
0
0
0
0
0
0
0
0
0
0
0
0
0
0
0
0
0
0
0
0
0
0
0
0
0
0
0
0
0
0
0
0
0
0
0
0
0
0
0
0
0
0
0
0
0
0
0
0
0
0
0
0
0
0
0
0
0
0
0
0
0
0
0
0
0
0
0
0
0
0
0
0
0
0
0
0
0
0
0
0
0
0
0
0
0
0
0
0
0
0
0
0
0
0
0
0
0
0
0
0
0
0
0
0
0
0
0
0
0
0
0
0
0
0
0
0
0
0
0
0
0
0
0
0
0
0
0
0
0
0
0

ExternalForce_(N) 3 343 double
0 -3.09568e-05 0
0 -0.000138619 0
0 -2.16714e-05 0
0 -0.000168226 0
0 -8.26002e-05 0
0 -8.9203e-05 0
0 -9.74165e-05 0
0 -7.37906e-05 0
0 -6.68156e-05 0
0 -5.47617e-05 0
0 -3.04981e-05 0
0 -0.000105531 0
0 -4.77758e-05 0
0 -0.000161821 0
0 -2.96713e-05 0
0 -7.9067e-05 0
0 -6.57564e-05 0
0 -0.000106704 0
0 -4.11017e-05 0
0 -8.006e-05 0
0 -6.02474e-05 0
0 -0.000115662 0
0 -2.18875e-05 0
0 -4.17098e-05 0
0 -0.000107827 0
0 -7.27379e-05 0
0 -4.13856e-05 0
0 -3.85027e-05 0
0 -3.029e-05 0
0 -0.000128774 0
0 -7.57947e-05 0
0 -0.000162261 0
0 -0.000116775 0
0 -7.15802e-05 0
0 -3.74431e-05 0
0 -0.000108892 0
0 -3.74072e-05 0
0 -0.000136493 0
0 -6.25303e-05 0
0 -7.85756e-05 0
0 -7.52544e-05 0
0 -0.000116589 0
0 -0.000160874 0
0 -2.73339e-05 0
0 -8.7662e-05 0
0 -2.53184e-05 0
0 -7.42972e-05 0
0 -4.15199e-05 0
0 -0.000128792 0
0 -3.72945e-05 0
0 -2.72189e-05 0
0 -7.03157e-05 0
0 -0.000119003 0
0 -5.02041e-05 0
0 -8.04153e-05 0
0 -4.4939e-05 0
0 -2.74192e-05 0
0 -3.19929e-05 0
0 -4.04607e-05 0
0 -2.07889e-05 0
0 -3.28809e-05 0
0 -3.54797e-05 0
0 -0.000153858 0
0 -7.19739e-05 0
0 -8.09026e-05 0
0 -4.90862e-05 0
0 -2.77255e-05 0
0 -7.06591e-05 0
0 -3.20606e-05 0
0 -4.10794e-05 0
0 -1.98932e-05 0
0 -2.37551e-05 0
0 -3.0591e-05 0
0 -5.86107e-05 0
0 -5.75946e-05 0
0 -4.01595e-05 0
0 -5.35099e-05 0
0 -2.24477e-05 0
0 -4.41213e-05 0
0 -4.29866e-05 0
0 -4.42325e-05 0
0 -4.30889e-05 0
0 -4.19155e-05 0
0 -5.21923e-05 0
0 -1.5029e-05 0
0 -2.34331e-05 0
0 -1.9903e-05 0
0 -4.30461e-05 0
0 -3.11931e-05 0
0 -3.08326e-05 0
0 -4.52797e-05 0
0 -5.7648e-05 0
0 -8.02544e-05 0
0 -2.43623e-05 0
0 -0.000150893 0
0 -3.43039e-05 0
0 -7.21258e-05 0
0 -1.97489e-05 0
0 -2.00202e-05 0
0 -7.83017e-05 0
0 -4.32908e-05 0
0 -7.00326e-05 0
0 -1.17841e-05 0
0 -4.93779e-05 0
0 -1.58193e-05 0
0 -4.04762e-05 0
0 -8.57147e-05 0
0 -4.2953e-05 0
0 -7.82027e-05 0
0 -2.09499e-05 0
0 -3.31713e-05 0
0 -9.30599e-05 0
0 -7.26197e-05 0
0 -1.76801e-05 0
0 -2.06228e-05 0
0 -7.8371e-05 0
0 -1.84411e-05 0
0 -7.30662e-05 0
0 -4.11806e-05 0
0 -2.3265e-05 0
0 -4.23503e-05 0
0 -5.94919e-05 0
0 -4.22718e-05 0
0 -2.12723e-05 0
0 -1.86252e-05 0
0 -1.77849e-05 0
0 -3.82356e-05 0
0 -2.39658e-05 0
0 -1.62481e-05 0
0 -7.86148e-05 0
0 -1.61387e-05 0
0 -2.34763e-05 0
0 -2.95637e-05 0
0 -2.93742e-05 0
0 -1.33947e-05 0
0 -1.83735e-05 0
0 -2.05639e-05 0
0 -1.91062e-05 0
0 -1.84053e-05 0
0 -6.25793e-05 0
0 -4.49914e-05 0
0 -1.98914e-05 0
0 -1.58922e-05 0
0 -2.367e-05 0
0 -3.81266e-05 0
0 -4.36518e-05 0
0 -2.25472e-05 0
0 -0.000115119 0
0 -3.05886e-05 0
0 -1.32828e-05 0
0 -3.38507e-05 0
0 -1.78391e-05 0
0 -2.88237e-05 0
0 -1.34771e-05 0
0 -2.36876e-05 0
0 -2.06453e-05 0
0 -2.58912e-05 0
0 -2.10097e-05 0
0 -1.7602e-05 0
0 -3.13896e-05 0
0 -1.34386e-05 0
0 -2.38863e-05 0
0 -2.04203e-05 0
0 -1.33426e-05 0
0 -2.13076e-05 0
0 -1.86316e-05 0
0 -3.10974e-05 0
0 -2.56228e-05 0
0 -2.33161e-05 0
0 -1.57181e-05 0
0 -1.87061e-05 0
0 -5.38771e-05 0
0 -1.84308e-05 0
0 -3.08341e-05 0
0 -2.91652e-05 0
0 -1.16203e-05 0
0 -1.85667e-05 0
0 -2.00287e-05 0
0 -2.68375e-05 0
0 -2.37799e-05 0
0 -3.16945e-05 0
0 -3.13676e-05 0
0 -3.15313e-05 0
0 -1.90796e-05 0
0 -1.58134e-05 0
0 -1.83326e-05 0
0 -3.16308e-05 0
0 -2.07128e-05 0
0 -2.91276e-05 0
0 -6.03597e-05 0
0 -2.26581e-05 0
0 -2.35174e-05 0
0 -2.33506e-05 0
0 -2.59482e-05 0
0 -1.63393e-05 0
0 -1.78912e-05 0
0 -2.02658e-05 0
0 -5.62379e-05 0
0 -2.04507e-05 0
0 -2.14176e-05 0
0 -2.38895e-05 0
0 -3.05955e-05 0
0 -3.11287e-05 0
0 -2.01544e-05 0
0 -1.92198e-05 0
0 -2.99909e-05 0
0 -6.32085e-05 0
0 -2.04829e-05 0
0 -2.67435e-05 0
0 -2.11611e-05 0
0 -1.83262e-05 0
0 -1.96474e-05 0
0 -2.0699e-05 0
0 -2.83503e-05 0
0 -2.27807e-05 0
0 -2.35234e-05 0
0 -1.93874e-05 0
0 -6.29086e-05 0
0 -2.12117e-05 0
0 -3.22943e-05 0
0 -2.06229e-05 0
0 -2.61501e-05 0
0 -1.90721e-05 0
0 -2.86319e-05 0
0 -2.53212e-05 0
0 -2.07681e-05 0
0 -2.05553e-05 0
0 -1.88077e-05 0
0 -6.92631e-05 0
0 -2.20924e-05 0
0 -2.02457e-05 0
0 -6.16224e-05 0
0 -2.08117e-05 0
0 -2.85397e-05 0
0 -2.08875e-05 0
0 -6.32617e-05 0
0 -1.39008e-05 0
0 -2.0289e-05 0
0 -6.45558e-05 0
0 -2.47785e-05 0
0 -2.35177e-05 0
0 -7.28089e-06 0
0 -2.18143e-05 0
0 -6.93323e-06 0
0 -6.87344e-06 0
0 -8.76768e-06 0
0 -2.48719e-05 0
0 -2.22231e-05 0
0 -1.31068e-05 0
0 -7.69816e-06 0
0 -2.27889e-05 0
0 -5.95166e-06 0
0 -6.55579e-06 0
0 -6.71305e-06 0
0 -2.46468e-05 0
0 -2.27228e-05 0
0 -7.6878e-06 0
0 -6.67903e-06 0
0 -6.10861e-05 0
0 -6.6189e-06 0
0 -6.52665e-06 0
0 -6.87836e-06 0
0 -1.78856e-05 0
0 -1.87072e-05 0
0 -6.73674e-06 0
0 -6.91401e-06 0
0 -1.82903e-05 0
0 -2.2423e-05 0
0 -6.67521e-06 0
0 -7.02401e-06 0
0 -1.78908e-05 0
0 -5.89658e-06 0
0 -1.98938e-05 0
0 -7.3162e-06 0
0 -5.63509e-06 0
0 -1.76631e-05 0
0 -1.42638e-05 0
0 -2.22707e-05 0
0 -1.77204e-05 0
0 -2.11264e-05 0
0 -1.75686e-05 0
0 -1.76047e-05 0
0 -6.69346e-06 0
0 -2.20467e-05 0
0 -1.42479e-05 0
0 -1.76144e-05 0
0 -6.84615e-06 0
0 -6.12404e-06 0
0 -6.50125e-06 0
0 -1.41879e-05 0
0 -1.37476e-05 0
0 -2.11168e-05 0
0 -1.79377e-05 0
0 -1.37282e-05 0
0 -1.41198e-05 0
0 -2.15061e-05 0
0 -6.84475e-06 0
0 -1.74349e-05 0
0 -1.75758e-05 0
0 -6.41828e-06 0
0 -7.20025e-06 0
0 -2.30432e-05 0
0 -6.96894e-06 0
0 -6.44499e-06 0
0 -6.14414e-06 0
0 -2.14766e-05 0
0 -6.00855e-06 0
0 -5.92427e-06 0
0 -5.81567e-06 0
0 -5.02303e-06 0
0 -5.01945e-06 0
0 -4.85271e-06 0
0 -4.87573e-06 0
0 -4.8684e-06 0
0 -5.22951e-06 0
0 -4.84801e-06 0
0 -4.88396e-06 0
0 -4.77612e-06 0
0 -4.81304e-06 0
0 -4.85251e-06 0
0 -4.8555e-06 0
0 -4.82575e-06 0
0 -4.80313e-06 0
0 -4.86923e-06 0
0 -4.85781e-06 0
0 -4.73027e-06 0
0 -1.08748e-05 0
0 -5.22863e-06 0
0 -5.34413e-06 0
0 -5.26459e-06 0
0 -5.05624e-06 0
0 -4.92238e-06 0
0 -5.43253e-06 0
0 -5.43253e-06 0
0 -5.43253e-06 0
0 -5.43253e-06 0
0 -5.43253e-06 0
0 -5.43253e-06 0
0 -5.40321e-06 0
0 -5.40321e-06 0
0 -7.3113e-06 0
0 -6.98147e-06 0
0 -4.8949e-06 0

