# vtk DataFile Version 4.2
vtk output
ASCII
DATASET UNSTRUCTURED_GRID

POINTS 343 double
0.00153322 0.00421426 -1.81781e-05
0.00296256 0.00502136 0.00214099
0 0.00419538 0.00112517
0.00264846 0.00198903 0.00191098
0.00701191 0.00251134 0.00495516
0.00699555 0.00393977 0.00634214
0.0101771 0.00496902 0.00488933
0.00835652 0.00499817 0.00357604
0.00918101 0.00344571 0.00685556
0.00674146 0.00510186 0.00492491
0.00566364 0.00120021 0.00997779
0.00715169 0.0021882 0.007866
0.00570229 6.91149e-05 0.00828535
0.00275922 0.00203585 0.0080022
0.0057939 0.00261575 0.00997703
0.00927617 0.00663062 0.00689116
0.00858016 0.00634561 0.00509297
0.00309784 0.00222346 0.00511301
0 0.00143586 0.00417514
0.00218456 0.00349199 0.00401375
0.00917815 0.00335024 0.00302261
0.0103834 0.00239043 0.00495351
0 0.00270918 0.00154168
0.00562573 0.00151237 -9.97818e-05
0.00678035 0.00229202 0.00208777
0.00536431 0.00360608 0.00151652
0.00185399 2.09598e-05 0.0040403
0.00568962 6.95861e-05 0.00159741
0.00353675 0.00700103 -5.69314e-05
0.0026315 0.00808533 0.00191341
0.00550375 0.00633319 0.00155592
0.0105819 0.00823081 0.00795926
0.0106096 0.00502284 0.00798528
0.0111212 0.00631784 0.00585227
0.013066 0.00917048 0.00403138
0.0100477 0.00786052 0.00485366
0.0112365 0.0102928 0.00402596
0.0105346 0.00822034 0.00183325
0.00481473 0.00310459 0.00691431
0.00600437 0.0037502 0.00829011
0.00531478 0.00167371 0.00591652
0.0067015 0.00778873 0.00763507
0.00270574 0.00803973 0.00796136
0.00379335 0.0100632 0.007089
0.00526625 0.00849024 0.00590469
0 0.00695361 0.00262895
0.00224517 0.00626774 0.00406191
0 0.0040177 0.00850214
0.00315624 0.0050266 0.00762821
0.0019556 0.00419878 0.00997975
0.00951176 0.00731875 0.00999162
0.00818328 0.0061201 0.00838679
0.00279039 0.00797448 0.00471045
0.0041273 0.00699699 0.00642255
0.00216451 0.00610497 0.0059024
0.0131351 0.00607768 0.00827039
0 0.00718191 0.00711644
0.00215421 0.00580165 -2.74721e-05
0 0.00577432 0.00158701
0.0131084 0.00747611 0.00704006
0.00388245 0.00340118 0.00997843
0.0132022 0.00164475 0.00400964
0.0107498 0.00212638 0.00178866
0.0111784 0.0037127 0.003851
0.00509027 0.00171843 0.00407009
0.00204591 0.0100252 0.00579264
0.00385413 4.37392e-05 0.00708799
0.0082071 0.00430966 0.00834308
0.0131052 0.00757955 0.00403412
0.0114172 0.000148713 0.00402196
0.00452022 0.0029342 -7.6823e-05
0.00367005 0.00158642 0.00997945
0.00386549 4.36033e-05 0.00278755
0.00647248 0.00529471 0.00751366
0.00430716 0.00320554 0.00311845
0 0.00849157 0.00581511
0.00658652 0.00377104 0.00370095
0.00210152 0.00273542 -2.62773e-05
0.00769671 0.00847093 0.00999103
0.00791167 0.0101712 0.00847781
0.00561292 0.0101048 0.00828409
0.00536375 0.00859126 0.00998338
0.0130792 0.00880471 0.0057016
0.00426457 0.00689233 0.00310089
0 0.00748929 0.00137438
0.00186329 0.00751006 -2.23979e-05
0 0.00287343 0.00335182
0 0.00580816 0.00831736
0 0.00429792 0.00253898
0.00342935 0.00434406 -5.46888e-05
0.00195285 0.00584144 0.00998024
0.00695503 0.00658804 0.00634225
0.00486396 0.00657686 0.00820258
0.00928655 0.00276486 0.00998437
0.0107085 0.00211959 0.00799516
0.00935756 0.000121455 0.00293655
0.00810883 0.00177722 0.00349702
0.0131778 0.00310053 0.00316184
0 0.00140616 0.00256446
0.00848035 0.00839458 0.00635676
0.00780398 0.0015444 -0.00015169
0.00809239 0.00367579 0.00145877
0.00423404 0.0100735 0.00578114
0.0112353 0.0102904 0.00573424
0.00347319 0.00145062 -5.54916e-05
0.00803894 9.93847e-05 0.00135082
0.00835048 0.00845428 0.00350133
0.0114143 0.000148144 0.00573557
0.00835877 0.00178928 0.00630156
0.00191913 0.00258648 0.00998046
0.00941485 0.00737384 -0.000188754
0.00690251 0.00781291 0.00205683
0.00793505 0.00623079 0.00146052
0 0.00686719 0.00578184
0.0131921 0.00161412 0.00235552
0.00242597 0.00363995 0.00638097
0.0130641 0.00880363 0.00241951
0.0111386 0.00640995 0.00398997
0.00789908 0.0101798 0.00135285
0.00936145 0.000117633 0.00687096
0.0132058 0.00164533 0.00570914
0.0111651 0.00376138 0.00597005
0.00206526 2.3909e-05 0.005793
0 0.0013659 0.00748679
0.0018748 2.10093e-05 0.00750702
0.0131187 0.00716155 0.00566426
0.00770346 0.00864619 -0.000155014
0 0.0075208 0.00859127
0.00185643 0.00750515 0.00998222
0.00568264 0.00830178 0.00355635
0.0112733 0.0102896 0.00745788
0.0130721 0.00894497 0.00746226
0.00775859 0.00169435 0.00998448
0.00967036 0.00434608 0.00998668
0 0.0057735 0.00666667
0.00185829 0.0100236 0.0075066
0 0.00863025 0.00752641
0.0114409 0.000151161 0.00231912
0.0131023 0.00725581 0.00242461
0.011184 0.00657261 0.00197116
0.0112575 0.00604172 0.00999295
0.00999933 0.00152263 0.00998788
0.0114515 0.000150203 0.00745786
0.0132029 0.00157311 0.00742093
0 0.00143551 0.00581971
0.00805379 9.83464e-05 0.00847679
0.00572254 6.78557e-05 0.00332295
0.0105462 0.00489888 0.00184922
0.0131503 0.00454378 0.00232511
0.00564336 0.0101104 0.0066199
0.00380163 0.010065 0.00278629
0.0018001 1.99568e-05 0.00239877
0 0.00727418 0.00419576
0.013139 0.00603952 0.00657786
0.00919292 0.0102217 0.00294168
0.00990599 0.0088499 0.00999225
0 0.00574334 0.00336387
0 0.0043297 0.00416652
0.0091371 0.0059427 0.00998964
0.0131835 0.00324702 0.00683563
0.00574116 6.7625e-05 0.00662089
0.00332646 0.0100555 0.00858477
0.00998056 0.00151357 -0.000199101
0.00769658 0.00679673 0.00998809
0.0130961 0.00781585 0.00855209
0.0113459 0.00779664 0.00999511
0.00922461 0.0031639 -0.000182825
0.00452093 0.00580585 -7.79023e-05
0.00991235 0.00885403 -0.00019928
0.00987495 0.0102494 0.00120868
0.00769081 0.00700616 -0.000152938
0.00928102 0.00654679 0.00289055
0.0100468 0.000132741 0.00120257
0.00389038 0.00504676 0.00997909
0.00581288 0.00591225 0.00998303
0.00582571 0.00424436 0.00998042
0.00989591 0.0102383 0.00858892
0.00337692 3.74317e-05 0.00858299
0.0131342 0.00600727 0.00317448
0 0.00302218 0.00691532
0.0131657 0.00425388 0.0084588
0.0112503 0.0042159 -0.000232425
0.0131663 0.00293633 0.00130296
0 0.00244495 0.00857025
0.00328505 0.00861611 0.00998288
0.0100585 0.000131672 0.00858839
0.0112773 0.00280165 0.0099914
0.011716 0.00439921 0.00999258
0.00753404 0.0101639 0.00576889
0.00694858 0.00770406 0.00495796
0.00749376 0.0101652 0.00412181
0.00920413 0.010216 0.00687168
0.00406541 0.00696379 0.00998184
0.00559741 0.00441033 -0.000103453
0.00387092 4.63121e-05 0.00436098
0.00430327 4.9731e-05 0.00578074
0.0131377 0.00444127 0.000877373
0.00487661 0.00841754 0.00151193
0.0131613 0.00457753 0.0040055
0.00886169 0.00593321 -0.000178157
0.0112591 0.0102967 0.00232757
0 0.00848692 0.00262374
0.00183337 0.0100222 0.00403978
0 0.00885053 0.00419359
0.00557988 0.008953 -0.000104416
0.00559655 0.0101126 0.0015985
0.00672732 0.00489277 0.00227212
0.00959923 0.00468844 -0.000193444
0.00762136 9.4824e-05 0.00411514
0.00766223 9.46329e-05 0.00576654
0.00177873 0.0100223 0.00239896
0.0113622 0.0026289 -0.000234351
0.0131596 0.00476925 0.00714862
0.00938386 0.0102272 0.00489969
0.00770291 0.00347632 0.00998207
0.00335133 3.59362e-05 0.00131042
0.0131861 0.00266312 0.00852826
0.00326089 0.00483324 0.00496305
0.00779385 0.00445213 -0.000153969
0.0109852 0.00603017 -0.000224091
0.00727755 0.0101532 0.00717054
0.0131642 0.00457672 0.00571994
0.00717002 0.0101562 0.00266837
0.00954898 0.000120404 0.00489452
0.00380999 0.0100639 0.00436015
0 0.00452174 0.00721958
0.00604592 0.00731435 0.00998511
0.00740371 9.03246e-05 0.00717476
0.00488693 0.00514141 0.00353841
0.00568045 0.0101147 0.00494589
0.00578051 6.63649e-05 0.00494481
0.00497753 0.00528444 0.0061225
0 0.005744 0.00499998
0 0.00433013 0.00583333
0.00668334 0.00584937 -0.00012986
0.0066988 0.00644557 0.00346256
0.00729211 9.0852e-05 0.00266476
0.0131408 0.0060045 0.00486309
0.00499658 0.00647687 0.0047871
0.00768452 0.005117 0.00998394
0.0131175 0.00604336 0.00134844
0 0.00666667 0
0.0112942 0.00777143 -0.000230835
0.00450803 5.18811e-05 -7.5175e-05
0 0.01 0.00666667
0.00662549 0.0101397 0.00998122
0 0.00288419 0.00499914
0.0130776 0.00779969 0.00113037
0.0130793 0.0069555 -0.000265171
0 0.005 0.01
0.00671077 0.00297908 -0.000127093
0 0.005 0
0.0132043 0.000169676 0.00314306
0.0130261 0.0103608 0.00658183
0.00560548 0.00736426 -0.000105208
0.0131859 0.00310528 0.0048615
0.00672554 7.85902e-05 -0.000121612
0 0 0.00666667
0.00516186 0.0036863 0.00517034
0.00673823 8.30583e-05 0.00998108
0.0132117 0.000169565 0.00658136
0 0 0.005
0.0114836 0.0103084 0.00100628
0.0130429 0.00910764 0.000975575
0.0132109 0.000169453 0.00486375
0.0131076 0.00526005 -0.000269475
0.0016672 0.00124198 -2.00872e-05
0 0.00122008 0.00122008
0 0.00333333 0.01
0 0.00666667 0.01
0.0114977 0.00906081 -0.000234884
0.0130193 0.010365 0.00315241
0.00562672 0.0101135 0.00332598
0.0131016 0.00694728 0.00999765
0 0.00333333 0
0 0.00122008 0.00877992
0.0016689 1.88505e-05 0.00876345
0.00166683 0.00123985 0.00998298
0.0115069 0.0102968 0.00875298
0.00165706 0.00879903 0.00998446
0 0.00877992 0.00877992
0.0130651 0.00909862 0.00874577
0.00877143 0.0102157 -0.000169796
0.0131839 0.0014241 0.000974325
0.00165303 0.0100226 0.00876157
0.0115335 0.00905087 0.00999573
0.0131343 0.00525417 0.00999638
0 0 0.00333333
0.00892415 0.000108309 -0.00017025
0.0116676 0.000155086 0.000999418
0.00165842 1.83746e-05 0.0011906
0 0.00877992 0.00122008
0.00165161 0.00879988 -2.04468e-05
0.00163742 0.0100222 0.00119279
0.0132016 0.00142425 0.00874558
0.0116657 0.00139547 0.00999297
0.00894036 0.000112313 0.00998633
0.011643 0.00139348 -0.000240023
0.0116848 0.000155596 0.00875456
0.0131361 0.00356808 -0.000271141
0.00444528 0.010084 0.00997714
0.00329587 0.0100554 0.00131107
0.00878926 0.0102055 0.00998462
0.0131617 0.00355715 0.00999424
0 0.01 0.005
0.00351599 0.00853886 -5.68224e-05
0.0130253 0.0103641 0.00486039
0 0.01 0.00333333
0 0.00166667 0
0.0131937 0.00017343 0.00143181
0 0.00166667 0.01
0 0.00833333 0
0.0130361 0.00865685 -0.000269993
0.0132089 0.000173968 0.00829038
0.0130073 0.0103649 0.00143607
0.0130246 0.0103569 0.0082895
0.00224282 0.0100383 0.00998026
0 0.01 0.00833333
0.010901 0.0102935 -0.000215186
0.0110823 0.000142538 -0.000220896
0.0111031 0.000147919 0.00999048
0.0109316 0.0102792 0.00999069
0 0 0.00833333
0.0130655 0.00864181 0.00999742
0.00227323 2.34396e-05 -2.97833e-05
0 0 0.00166667
0.00443197 0.0100837 -7.64836e-05
0.0131856 0.0018795 0.00999437
0.0131614 0.00187882 -0.000270451
0.00227295 2.53312e-05 0.00998131
0.0022365 0.0100352 -3.11947e-05
0 0.01 0.00166667
0.0130238 0.0103542 0.00999333
0 0 0.01
0.0129916 0.0103651 -0.000263945
0.0132077 0.000177991 0.00999402
0 0.01 0.01
0.0131826 0.000172381 -0.000267094
0 0.01 0
0 0 0
0.00661194 0.0101472 -0.000125246
0.00451381 5.58615e-05 0.00998149
0 0.00833333 0.01

CELLS 343 686
1 0
1 1
1 2
1 3
1 4
1 5
1 6
1 7
1 8
1 9
1 10
1 11
1 12
1 13
1 14
1 15
1 16
1 17
1 18
1 19
1 20
1 21
1 22
1 23
1 24
1 25
1 26
1 27
1 28
1 29
1 30
1 31
1 32
1 33
1 34
1 35
1 36
1 37
1 38
1 39
1 40
1 41
1 42
1 43
1 44
1 45
1 46
1 47
1 48
1 49
1 50
1 51
1 52
1 53
1 54
1 55
1 56
1 57
1 58
1 59
1 60
1 61
1 62
1 63
1 64
1 65
1 66
1 67
1 68
1 69
1 70
1 71
1 72
1 73
1 74
1 75
1 76
1 77
1 78
1 79
1 80
1 81
1 82
1 83
1 84
1 85
1 86
1 87
1 88
1 89
1 90
1 91
1 92
1 93
1 94
1 95
1 96
1 97
1 98
1 99
1 100
1 101
1 102
1 103
1 104
1 105
1 106
1 107
1 108
1 109
1 110
1 111
1 112
1 113
1 114
1 115
1 116
1 117
1 118
1 119
1 120
1 121
1 122
1 123
1 124
1 125
1 126
1 127
1 128
1 129
1 130
1 131
1 132
1 133
1 134
1 135
1 136
1 137
1 138
1 139
1 140
1 141
1 142
1 143
1 144
1 145
1 146
1 147
1 148
1 149
1 150
1 151
1 152
1 153
1 154
1 155
1 156
1 157
1 158
1 159
1 160
1 161
1 162
1 163
1 164
1 165
1 166
1 167
1 168
1 169
1 170
1 171
1 172
1 173
1 174
1 175
1 176
1 177
1 178
1 179
1 180
1 181
1 182
1 183
1 184
1 185
1 186
1 187
1 188
1 189
1 190
1 191
1 192
1 193
1 194
1 195
1 196
1 197
1 198
1 199
1 200
1 201
1 202
1 203
1 204
1 205
1 206
1 207
1 208
1 209
1 210
1 211
1 212
1 213
1 214
1 215
1 216
1 217
1 218
1 219
1 220
1 221
1 222
1 223
1 224
1 225
1 226
1 227
1 228
1 229
1 230
1 231
1 232
1 233
1 234
1 235
1 236
1 237
1 238
1 239
1 240
1 241
1 242
1 243
1 244
1 245
1 246
1 247
1 248
1 249
1 250
1 251
1 252
1 253
1 254
1 255
1 256
1 257
1 258
1 259
1 260
1 261
1 262
1 263
1 264
1 265
1 266
1 267
1 268
1 269
1 270
1 271
1 272
1 273
1 274
1 275
1 276
1 277
1 278
1 279
1 280
1 281
1 282
1 283
1 284
1 285
1 286
1 287
1 288
1 289
1 290
1 291
1 292
1 293
1 294
1 295
1 296
1 297
1 298
1 299
1 300
1 301
1 302
1 303
1 304
1 305
1 306
1 307
1 308
1 309
1 310
1 311
1 312
1 313
1 314
1 315
1 316
1 317
1 318
1 319
1 320
1 321
1 322
1 323
1 324
1 325
1 326
1 327
1 328
1 329
1 330
1 331
1 332
1 333
1 334
1 335
1 336
1 337
1 338
1 339
1 340
1 341
1 342

CELL_TYPES 343
1
1
1
1
1
1
1
1
1
1
1
1
1
1
1
1
1
1
1
1
1
1
1
1
1
1
1
1
1
1
1
1
1
1
1
1
1
1
1
1
1
1
1
1
1
1
1
1
1
1
1
1
1
1
1
1
1
1
1
1
1
1
1
1
1
1
1
1
1
1
1
1
1
1
1
1
1
1
1
1
1
1
1
1
1
1
1
1
1
1
1
1
1
1
1
1
1
1
1
1
1
1
1
1
1
1
1
1
1
1
1
1
1
1
1
1
1
1
1
1
1
1
1
1
1
1
1
1
1
1
1
1
1
1
1
1
1
1
1
1
1
1
1
1
1
1
1
1
1
1
1
1
1
1
1
1
1
1
1
1
1
1
1
1
1
1
1
1
1
1
1
1
1
1
1
1
1
1
1
1
1
1
1
1
1
1
1
1
1
1
1
1
1
1
1
1
1
1
1
1
1
1
1
1
1
1
1
1
1
1
1
1
1
1
1
1
1
1
1
1
1
1
1
1
1
1
1
1
1
1
1
1
1
1
1
1
1
1
1
1
1
1
1
1
1
1
1
1
1
1
1
1
1
1
1
1
1
1
1
1
1
1
1
1
1
1
1
1
1
1
1
1
1
1
1
1
1
1
1
1
1
1
1
1
1
1
1
1
1
1
1
1
1
1
1
1
1
1
1
1
1
1
1
1
1
1
1
1
1
1
1
1
1
1
1
1
1
1
1
1
1
1
1
1
1
1
1
1
1
1
1
1
1
1
1
1
1
1
1
1
1
1
1

POINT_DATA 343
FIELD FieldData 3

ExternalForceID_(#) 1 343 int
0
1
2
3
4
5
6
7
8
9
10
11
12
13
14
15
16
17
18
19
20
21
22
23
24
25
26
27
28
29
30
31
32
33
34
35
36
37
38
39
40
41
42
43
44
45
46
47
48
49
50
51
52
53
54
55
56
57
58
59
60
61
62
63
64
65
66
67
68
69
70
71
72
73
74
75
76
77
78
79
80
81
82
83
84
85
86
87
88
89
90
91
92
93
94
95
96
97
98
99
100
101
102
103
104
105
106
107
108
109
110
111
112
113
114
115
116
117
118
119
120
121
122
123
124
125
126
127
128
129
130
131
132
133
134
135
136
137
138
139
140
141
142
143
144
145
146
147
148
149
150
151
152
153
154
155
156
157
158
159
160
161
162
163
164
165
166
167
168
169
170
171
172
173
174
175
176
177
178
179
180
181
182
183
184
185
186
187
188
189
190
191
192
193
194
195
196
197
198
199
200
201
202
203
204
205
206
207
208
209
210
211
212
213
214
215
216
217
218
219
220
221
222
223
224
225
226
227
228
229
230
231
232
233
234
235
236
237
238
239
240
241
242
243
244
245
246
247
248
249
250
251
252
253
254
255
256
257
258
259
260
261
262
263
264
265
266
267
268
269
270
271
272
273
274
275
276
277
278
279
280
281
282
283
284
285
286
287
288
289
290
291
292
293
294
295
296
297
298
299
300
301
302
303
304
305
306
307
308
309
310
311
312
313
314
315
316
317
318
319
320
321
322
323
324
325
326
327
328
329
330
331
332
333
334
335
336
337
338
339
340
341
342

ExternalForceType_(0/1/2/3/4) 1 343 int
0
0
0
0
0
0
0
0
0
0
0
0
0
0
0
0
0
0
0
0
0
0
0
0
0
0
0
0
0
0
0
0
0
0
0
0
0
0
0
0
0
0
0
0
0
0
0
0
0
0
0
0
0
0
0
0
0
0
0
0
0
0
0
0
0
0
0
0
0
0
0
0
0
0
0
0
0
0
0
0
0
0
0
0
0
0
0
0
0
0
0
0
0
0
0
0
0
0
0
0
0
0
0
0
0
0
0
0
0
0
0
0
0
0
0
0
0
0
0
0
0
0
0
0
0
0
0
0
0
0
0
0
0
0
0
0
0
0
0
0
0
0
0
0
0
0
0
0
0
0
0
0
0
0
0
0
0
0
0
0
0
0
0
0
0
0
0
0
0
0
0
0
0
0
0
0
0
0
0
0
0
0
0
0
0
0
0
0
0
0
0
0
0
0
0
0
0
0
0
0
0
0
0
0
0
0
0
0
0
0
0
0
0
0
0
0
0
0
0
0
0
0
0
0
0
0
0
0
0
0
0
0
0
0
0
0
0
0
0
0
0
0
0
0
0
0
0
0
0
0
0
0
0
0
0
0
0
0
0
0
0
0
0
0
0
0
0
0
0
0
0
0
0
0
0
0
0
0
0
0
0
0
0
0
0
0
0
0
0
0
0
0
0
0
0
0
0
0
0
0
0
0
0
0
0
0
0
0
0
0
0
0
0
0
0
0
0
0
0
0
0
0
0
0
0
0
0
0
0
0
0
0
0
0
0
0
0
0
0
0
0
0
0

ExternalForce_(N) 3 343 double
0 -3.09568e-05 0
0 -0.000138619 0
0 -2.16714e-05 0
0 -0.000168226 0
0 -8.26002e-05 0
0 -8.9203e-05 0
0 -9.74165e-05 0
0 -7.37906e-05 0
0 -6.68156e-05 0
0 -5.47617e-05 0
0 -3.04981e-05 0
0 -0.000105531 0
0 -4.77758e-05 0
0 -0.000161821 0
0 -2.96713e-05 0
0 -7.9067e-05 0
0 -6.57564e-05 0
0 -0.000106704 0
0 -4.11017e-05 0
0 -8.006e-05 0
0 -6.02474e-05 0
0 -0.000115662 0
0 -2.18875e-05 0
0 -4.17098e-05 0
0 -0.000107827 0
0 -7.27379e-05 0
0 -4.13856e-05 0
0 -3.85027e-05 0
0 -3.029e-05 0
0 -0.000128774 0
0 -7.57947e-05 0
0 -0.000162261 0
0 -0.000116775 0
0 -7.15802e-05 0
0 -3.74431e-05 0
0 -0.000108892 0
0 -3.74072e-05 0
0 -0.000136493 0
0 -6.25303e-05 0
0 -7.85756e-05 0
0 -7.52544e-05 0
0 -0.000116589 0
0 -0.000160874 0
0 -2.73339e-05 0
0 -8.7662e-05 0
0 -2.53184e-05 0
0 -7.42972e-05 0
0 -4.15199e-05 0
0 -0.000128792 0
0 -3.72945e-05 0
0 -2.72189e-05 0
0 -7.03157e-05 0
0 -0.000119003 0
0 -5.02041e-05 0
0 -8.04153e-05 0
0 -4.4939e-05 0
0 -2.74192e-05 0
0 -3.19929e-05 0
0 -4.04607e-05 0
0 -2.07889e-05 0
0 -3.28809e-05 0
0 -3.54797e-05 0
0 -0.000153858 0
0 -7.19739e-05 0
0 -8.09026e-05 0
0 -4.90862e-05 0
0 -2.77255e-05 0
0 -7.06591e-05 0
0 -3.20606e-05 0
0 -4.10794e-05 0
0 -1.98932e-05 0
0 -2.37551e-05 0
0 -3.0591e-05 0
0 -5.86107e-05 0
0 -5.75946e-05 0
0 -4.01595e-05 0
0 -5.35099e-05 0
0 -2.24477e-05 0
0 -4.41213e-05 0
0 -4.29866e-05 0
0 -4.42325e-05 0
0 -4.30889e-05 0
0 -4.19155e-05 0
0 -5.21923e-05 0
0 -1.5029e-05 0
0 -2.34331e-05 0
0 -1.9903e-05 0
0 -4.30461e-05 0
0 -3.11931e-05 0
0 -3.08326e-05 0
0 -4.52797e-05 0
0 -5.7648e-05 0
0 -8.02544e-05 0
0 -2.43623e-05 0
0 -0.000150893 0
0 -3.43039e-05 0
0 -7.21258e-05 0
0 -1.97489e-05 0
0 -2.00202e-05 0
0 -7.83017e-05 0
0 -4.32908e-05 0
0 -7.00326e-05 0
0 -1.17841e-05 0
0 -4.93779e-05 0
0 -1.58193e-05 0
0 -4.04762e-05 0
0 -8.57147e-05 0
0 -4.2953e-05 0
0 -7.82027e-05 0
0 -2.09499e-05 0
0 -3.31713e-05 0
0 -9.30599e-05 0
0 -7.26197e-05 0
0 -1.76801e-05 0
0 -2.06228e-05 0
0 -7.8371e-05 0
0 -1.84411e-05 0
0 -7.30662e-05 0
0 -4.11806e-05 0
0 -2.3265e-05 0
0 -4.23503e-05 0
0 -5.94919e-05 0
0 -4.22718e-05 0
0 -2.12723e-05 0
0 -1.86252e-05 0
0 -1.77849e-05 0
0 -3.82356e-05 0
0 -2.39658e-05 0
0 -1.62481e-05 0
0 -7.86148e-05 0
0 -1.61387e-05 0
0 -2.34763e-05 0
0 -2.95637e-05 0
0 -2.93742e-05 0
0 -1.33947e-05 0
0 -1.83735e-05 0
0 -2.05639e-05 0
0 -1.91062e-05 0
0 -1.84053e-05 0
0 -6.25793e-05 0
0 -4.49914e-05 0
0 -1.98914e-05 0
0 -1.58922e-05 0
0 -2.367e-05 0
0 -3.81266e-05 0
0 -4.36518e-05 0
0 -2.25472e-05 0
0 -0.000115119 0
0 -3.05886e-05 0
0 -1.32828e-05 0
0 -3.38507e-05 0
0 -1.78391e-05 0
0 -2.88237e-05 0
0 -1.34771e-05 0
0 -2.36876e-05 0
0 -2.06453e-05 0
0 -2.58912e-05 0
0 -2.10097e-05 0
0 -1.7602e-05 0
0 -3.13896e-05 0
0 -1.34386e-05 0
0 -2.38863e-05 0
0 -2.04203e-05 0
0 -1.33426e-05 0
0 -2.13076e-05 0
0 -1.86316e-05 0
0 -3.10974e-05 0
0 -2.56228e-05 0
0 -2.33161e-05 0
0 -1.57181e-05 0
0 -1.87061e-05 0
0 -5.38771e-05 0
0 -1.84308e-05 0
0 -3.08341e-05 0
0 -2.91652e-05 0
0 -1.16203e-05 0
0 -1.85667e-05 0
0 -2.00287e-05 0
0 -2.68375e-05 0
0 -2.37799e-05 0
0 -3.16945e-05 0
0 -3.13676e-05 0
0 -3.15313e-05 0
0 -1.90796e-05 0
0 -1.58134e-05 0
0 -1.83326e-05 0
0 -3.16308e-05 0
0 -2.07128e-05 0
0 -2.91276e-05 0
0 -6.03597e-05 0
0 -2.26581e-05 0
0 -2.35174e-05 0
0 -2.33506e-05 0
0 -2.59482e-05 0
0 -1.63393e-05 0
0 -1.78912e-05 0
0 -2.02658e-05 0
0 -5.62379e-05 0
0 -2.04507e-05 0
0 -2.14176e-05 0
0 -2.38895e-05 0
0 -3.05955e-05 0
0 -3.11287e-05 0
0 -2.01544e-05 0
0 -1.92198e-05 0
0 -2.99909e-05 0
0 -6.32085e-05 0
0 -2.04829e-05 0
0 -2.67435e-05 0
0 -2.11611e-05 0
0 -1.83262e-05 0
0 -1.96474e-05 0
0 -2.0699e-05 0
0 -2.83503e-05 0
0 -2.27807e-05 0
0 -2.35234e-05 0
0 -1.93874e-05 0
0 -6.29086e-05 0
0 -2.12117e-05 0
0 -3.22943e-05 0
0 -2.06229e-05 0
0 -2.61501e-05 0
0 -1.90721e-05 0
0 -2.86319e-05 0
0 -2.53212e-05 0
0 -2.07681e-05 0
0 -2.05553e-05 0
0 -1.88077e-05 0
0 -6.92631e-05 0
0 -2.20924e-05 0
0 -2.02457e-05 0
0 -6.16224e-05 0
0 -2.08117e-05 0
0 -2.85397e-05 0
0 -2.08875e-05 0
0 -6.32617e-05 0
0 -1.39008e-05 0
0 -2.0289e-05 0
0 -6.45558e-05 0
0 -2.47785e-05 0
0 -2.35177e-05 0
0 -7.28089e-06 0
0 -2.18143e-05 0
0 -6.93323e-06 0
0 -6.87344e-06 0
0 -8.76768e-06 0
0 -2.48719e-05 0
0 -2.22231e-05 0
0 -1.31068e-05 0
0 -7.69816e-06 0
0 -2.27889e-05 0
0 -5.95166e-06 0
0 -6.55579e-06 0
0 -6.71305e-06 0
0 -2.46468e-05 0
0 -2.27228e-05 0
0 -7.6878e-06 0
0 -6.67903e-06 0
0 -6.10861e-05 0
0 -6.6189e-06 0
0 -6.52665e-06 0
0 -6.87836e-06 0
0 -1.78856e-05 0
0 -1.87072e-05 0
0 -6.73674e-06 0
0 -6.91401e-06 0
0 -1.82903e-05 0
0 -2.2423e-05 0
0 -6.67521e-06 0
0 -7.02401e-06 0
0 -1.78908e-05 0
0 -5.89658e-06 0
0 -1.98938e-05 0
0 -7.3162e-06 0
0 -5.63509e-06 0
0 -1.76631e-05 0
0 -1.42638e-05 0
0 -2.22707e-05 0
0 -1.77204e-05 0
0 -2.11264e-05 0
0 -1.75686e-05 0
0 -1.76047e-05 0
0 -6.69346e-06 0
0 -2.20467e-05 0
0 -1.42479e-05 0
0 -1.76144e-05 0
0 -6.84615e-06 0
0 -6.12404e-06 0
0 -6.50125e-06 0
0 -1.41879e-05 0
0 -1.37476e-05 0
0 -2.11168e-05 0
0 -1.79377e-05 0
0 -1.37282e-05 0
0 -1.41198e-05 0
0 -2.15061e-05 0
0 -6.84475e-06 0
0 -1.74349e-05 0
0 -1.75758e-05 0
0 -6.41828e-06 0
0 -7.20025e-06 0
0 -2.30432e-05 0
0 -6.96894e-06 0
0 -6.44499e-06 0
0 -6.14414e-06 0
0 -2.14766e-05 0
0 -6.00855e-06 0
0 -5.92427e-06 0
0 -5.81567e-06 0
0 -5.02303e-06 0
0 -5.01945e-06 0
0 -4.85271e-06 0
0 -4.87573e-06 0
0 -4.8684e-06 0
0 -5.22951e-06 0
0 -4.84801e-06 0
0 -4.88396e-06 0
0 -4.77612e-06 0
0 -4.81304e-06 0
0 -4.85251e-06 0
0 -4.8555e-06 0
0 -4.82575e-06 0
0 -4.80313e-06 0
0 -4.86923e-06 0
0 -4.85781e-06 0
0 -4.73027e-06 0
0 -1.08748e-05 0
0 -5.22863e-06 0
0 -5.34413e-06 0
0 -5.26459e-06 0
0 -5.05624e-06 0
0 -4.92238e-06 0
0 -5.43253e-06 0
0 -5.43253e-06 0
0 -5.43253e-06 0
0 -5.43253e-06 0
0 -5.43253e-06 0
0 -5.43253e-06 0
0 -5.40321e-06 0
0 -5.40321e-06 0
0 -7.3113e-06 0
0 -6.98147e-06 0
0 -4.8949e-06 0

