# vtk DataFile Version 4.2
vtk output
ASCII
DATASET UNSTRUCTURED_GRID

POINTS 343 double
0.00120508 0.00419803 -2.88694e-06
0.00233062 0.00498855 0.00216931
0 0.00419538 0.00112517
0.00207333 0.00196011 0.00193684
0.00556557 0.00242756 0.00501621
0.00556575 0.00384818 0.00638007
0.00820892 0.00480578 0.00497347
0.00669712 0.00487306 0.00367346
0.00736526 0.00331682 0.00688885
0.00536646 0.0050088 0.00498452
0.0045064 0.00113531 0.00998396
0.00568948 0.00210203 0.00788506
0.00451828 1.13066e-05 0.00830283
0.00216327 0.00200829 0.00802759
0.00461719 0.00254863 0.00998347
0.0074862 0.00647076 0.00692107
0.00689891 0.00620418 0.00516225
0.00242951 0.00219134 0.00513969
0 0.00143586 0.00417514
0.00171256 0.00347055 0.0040327
0.00736403 0.003223 0.00314163
0.00835021 0.00224917 0.00503786
0 0.00270918 0.00154168
0.00447716 0.00144618 -1.03241e-05
0.00539121 0.00220852 0.0021841
0.00426039 0.00353993 0.00159246
0.0014469 3.46774e-06 0.00405623
0.00450786 1.13219e-05 0.00167667
0.0028198 0.00695912 -6.45417e-06
0.00207975 0.00805808 0.00193954
0.00439129 0.00626006 0.00163417
0.00861456 0.00801351 0.00796478
0.00858245 0.00484707 0.00799
0.00903535 0.00611158 0.00591779
0.0107746 0.00886304 0.00415827
0.00815148 0.00766168 0.00493866
0.00921753 0.0100085 0.00413883
0.0085815 0.00799884 0.00199372
0.00380327 0.00304787 0.00694865
0.00477583 0.00367661 0.0083083
0.00418993 0.00161564 0.00595712
0.00538064 0.00768386 0.00765888
0.00213626 0.00801352 0.00798409
0.00303481 0.0100053 0.007119
0.00420574 0.00841126 0.00594598
0 0.00695361 0.00262895
0.00176753 0.00624381 0.00408339
0 0.0040177 0.00850214
0.00248677 0.00499205 0.00765495
0.00154013 0.00417833 0.00999602
0.00772589 0.00714244 0.00996744
0.00658439 0.00599113 0.00839359
0.00220244 0.00794709 0.00473616
0.00326905 0.0069515 0.00645904
0.00170403 0.00608267 0.00592161
0.0107763 0.00582518 0.00827276
0 0.00718191 0.00711644
0.00170072 0.00577786 -4.10001e-06
0 0.00577432 0.00158701
0.0107761 0.00719635 0.00707401
0.0030858 0.00335799 0.00998983
0.0107674 0.0014616 0.00414034
0.00866439 0.00198191 0.00195637
0.00904273 0.00353911 0.00397134
0.00400957 0.0016624 0.00411731
0.00161931 0.0100037 0.00581089
0.00302724 7.60391e-06 0.00711958
0.00657974 0.00419372 0.00835237
0.0107717 0.00728747 0.00416038
0.00920726 2.5151e-05 0.00413945
0.003593 0.00288085 -8.15025e-06
0.00290826 0.00154819 0.00999052
0.00303557 7.74069e-06 0.00282396
0.00516098 0.00520937 0.00753729
0.00339435 0.00315601 0.00315823
0 0.00849157 0.00581511
0.00523298 0.00368667 0.00377189
0.00165063 0.00271282 -3.94732e-06
0.00624019 0.0083346 0.00997453
0.00643472 0.0100081 0.00848112
0.00452757 0.0100069 0.00830236
0.00432015 0.00851084 0.00998405
0.0107762 0.00850439 0.00577585
0.00337958 0.00684251 0.0031418
0 0.00748929 0.00137438
0.00147361 0.00749269 -3.58672e-06
0 0.00287343 0.00335182
0 0.00580816 0.00831736
0 0.00429792 0.00253898
0.0027212 0.00430335 -6.12934e-06
0.00154054 0.00582303 0.00999595
0.00556397 0.00648484 0.00638271
0.00387348 0.00651962 0.00822165
0.00747688 0.00264328 0.00996944
0.00863008 0.00197793 0.00800179
0.00748865 1.95852e-05 0.00306139
0.0064653 0.00167939 0.00359488
0.0107672 0.00289636 0.00331896
0 0.00140616 0.00256446
0.00685292 0.00823764 0.00639785
0.0062461 0.00145025 -1.43111e-05
0.00648266 0.00356505 0.00158705
0.00338846 0.0100058 0.00581571
0.0092139 0.0100086 0.00580095
0.00274745 0.00141251 -6.18486e-06
0.00641641 1.68723e-05 0.00147818
0.0067505 0.00829737 0.0035982
0.00920355 2.50277e-05 0.00580114
0.00666777 0.00168816 0.00634313
0.0015074 0.00256776 0.00999612
0.00764872 0.00719226 -1.82398e-05
0.00554863 0.00769865 0.00215477
0.00638283 0.00610344 0.00158599
0 0.00686719 0.00578184
0.010766 0.00143225 0.00253306
0.00190388 0.00361478 0.00640292
0.0107726 0.00849962 0.0025918
0.00904944 0.00620296 0.00410471
0.00642702 0.0100077 0.00147781
0.00749212 1.99142e-05 0.0068998
0.0107696 0.00146101 0.00578043
0.00903412 0.00359099 0.00602878
0.00161554 3.84021e-06 0.0058111
0 0.0013659 0.00748679
0.00146701 3.60842e-06 0.00752544
0.0107732 0.00688159 0.00574308
0.00624831 0.00850006 -1.42804e-05
0 0.0075208 0.00859127
0.00146646 0.00749021 0.00999601
0.0045427 0.0082132 0.0036161
0.00925234 0.0100089 0.00747569
0.0107794 0.00864276 0.00748295
0.00620735 0.0016009 0.0099755
0.00781046 0.00420222 0.00996758
0 0.0057735 0.00666667
0.00147049 0.0100033 0.00752521
0 0.00863025 0.00752641
0.00923479 2.53901e-05 0.00248161
0.0107699 0.0069673 0.00259708
0.0090987 0.00635522 0.0021383
0.00916228 0.00583804 0.00996019
0.00805812 0.00139284 0.00996638
0.00924218 2.5207e-05 0.00747647
0.0107727 0.00139178 0.00744383
0 0.00143551 0.00581971
0.00642322 1.67345e-05 0.00848197
0.00451891 1.16365e-05 0.003388
0.00852923 0.00472262 0.00201209
0.0107673 0.00431827 0.00250817
0.00454391 0.0100067 0.00665239
0.00304295 0.0100055 0.00282394
0.00140544 3.38892e-06 0.00241466
0 0.00727418 0.00419576
0.0107736 0.00579104 0.00662548
0.00750028 0.0100081 0.00306073
0.00808347 0.00864724 0.00996537
0 0.00574334 0.00336387
0 0.0043297 0.00416652
0.00739162 0.005796 0.00996915
0.010772 0.00304501 0.00687336
0.00453418 1.16744e-05 0.00665275
0.00266314 0.0100046 0.00860352
0.0080433 0.00138503 -1.92139e-05
0.00621121 0.00667651 0.00997493
0.0107794 0.00753509 0.00854599
0.00927177 0.00756573 0.0099593
0.00742714 0.00303785 -1.76231e-05
0.00360794 0.00575008 -8.26016e-06
0.00809357 0.00863976 -1.95689e-05
0.00808462 0.010008 0.00136633
0.00620964 0.00687658 -1.42962e-05
0.00749605 0.00638174 0.00301268
0.0080734 2.16212e-05 0.00136701
0.00309837 0.00500545 0.00998967
0.00465484 0.005842 0.00998256
0.00465254 0.00417551 0.00998274
0.0080928 0.0100088 0.00858273
0.00265619 6.84332e-06 0.00860403
0.0107689 0.00576138 0.00333095
0 0.00302218 0.00691532
0.0107753 0.00403865 0.0084574
0.00914182 0.00403537 -2.17101e-05
0.0107657 0.00273234 0.00151274
0 0.00244495 0.00857025
0.00262899 0.00857541 0.00999119
0.00808231 2.14821e-05 0.00858369
0.00913668 0.0026433 0.00996068
0.00953187 0.00421161 0.00995847
0.00609752 0.0100078 0.00581351
0.00557137 0.00759227 0.00501572
0.00606593 0.0100077 0.00419766
0.00750298 0.0100084 0.00689921
0.00324834 0.00692177 0.00998875
0.00446881 0.00433809 -1.01939e-05
0.00303874 7.46698e-06 0.00439655
0.00338041 8.52364e-06 0.00581608
0.0107666 0.00421598 0.00109687
0.0039055 0.00834426 0.00157847
0.0107686 0.00434963 0.00413108
0.00716146 0.00578499 -1.67623e-05
0.00924502 0.0100083 0.00248079
0 0.00848692 0.00262374
0.00145063 0.0100034 0.00405618
0 0.00885053 0.00419359
0.00450396 0.0088575 -1.03615e-05
0.00451672 0.0100067 0.00167634
0.00536474 0.00480095 0.00236525
0.00775635 0.00453568 -1.83305e-05
0.00605534 1.56717e-05 0.00419857
0.00608676 1.57293e-05 0.00581422
0.00140901 0.0100033 0.00241446
0.00921422 0.00246515 -2.18824e-05
0.0107735 0.00454145 0.00717682
0.00765533 0.0100081 0.00497573
0.00617459 0.00337596 0.00997583
0.00263365 6.81942e-06 0.00135011
0.0107749 0.0024689 0.00852537
0.00256891 0.00479651 0.00499315
0.00626242 0.00434189 -1.44808e-05
0.00894337 0.00582169 -2.15841e-05
0.00589354 0.0100078 0.00720014
0.0107711 0.00435009 0.0057941
0.0058067 0.0100075 0.00276016
0.00764389 2.03003e-05 0.00497661
0.00304602 0.0100055 0.00439634
0 0.00452174 0.00721958
0.00486246 0.0072283 0.00998146
0.00588265 1.51308e-05 0.00720038
0.00386517 0.00508118 0.0035862
0.00456859 0.0100066 0.00499505
0.00455897 1.19796e-05 0.00499557
0.00393978 0.00522432 0.00616346
0 0.005744 0.00499998
0 0.00433013 0.00583333
0.00536657 0.00575302 -1.22985e-05
0.00535182 0.006348 0.00353927
0.00579663 1.49204e-05 0.0027606
0.0107708 0.00576232 0.00496261
0.00396102 0.00641514 0.00483313
0.00617683 0.00501095 0.00997554
0.0107678 0.005792 0.00155807
0 0.00666667 0
0.00924255 0.00753263 -2.24315e-05
0.00357269 9.6765e-06 -8.58292e-06
0 0.01 0.00666667
0.00538369 0.0100073 0.00997885
0 0.00288419 0.00499914
0.0107701 0.0075022 0.00134576
0.0107686 0.00668207 -2.71925e-05
0 0.005 0.01
0.00536349 0.00289552 -1.2294e-05
0 0.005 0
0.0107679 3.14016e-05 0.00330051
0.0107817 0.010009 0.00662499
0.00450384 0.00728173 -1.02868e-05
0.010769 0.00290761 0.00496193
0.00536419 1.46952e-05 -1.30153e-05
0 0 0.00666667
0.00407493 0.00362468 0.005215
0.005373 1.39017e-05 0.00997999
0.0107724 3.11437e-05 0.00662547
0 0 0.005
0.0094518 0.0100082 0.00119538
0.0107724 0.0087917 0.00119141
0.0107699 3.12541e-05 0.00496286
0.0107674 0.00501893 -2.67143e-05
0.00130593 0.001223 -3.17337e-06
0 0.00122008 0.00122008
0 0.00333333 0.01
0 0.00666667 0.01
0.00944954 0.00879003 -2.30342e-05
0.0107771 0.0100088 0.00329948
0.00452805 0.0100066 0.00338758
0.0107819 0.0066823 0.00995107
0 0.00333333 0
0 0.00122008 0.00877992
0.00130728 3.25881e-06 0.00877652
0.00130759 0.00122297 0.00999669
0.00946119 0.0100092 0.00873975
0.00131022 0.00878288 0.00999642
0 0.00877992 0.00877992
0.0107818 0.0087922 0.00873397
0.00716929 0.0100076 -1.73842e-05
0.010765 0.00124702 0.00119158
0.00131054 0.0100028 0.00877642
0.0094609 0.0087909 0.00995806
0.01078 0.00501881 0.00995132
0 0 0.00333333
0.00715859 1.98944e-05 -1.76189e-05
0.00944163 2.62938e-05 0.00119601
0.00129695 3.24151e-06 0.00120852
0 0.00877992 0.00122008
0.00130863 0.00878276 -3.14366e-06
0.00130018 0.0100029 0.00120817
0.0107749 0.00124643 0.0087345
0.00945378 0.00124283 0.00995904
0.00716972 1.89398e-05 0.00997111
0.00944102 0.00124371 -2.25851e-05
0.0094513 2.57807e-05 0.0087406
0.0107659 0.00335547 -2.64682e-05
0.00358725 0.0100058 0.00998733
0.00264029 0.0100049 0.0013497
0.00718098 0.0100085 0.00996994
0.0107788 0.00335584 0.00995173
0 0.01 0.005
0.00281594 0.0084922 -6.53972e-06
0.0107791 0.0100088 0.00496285
0 0.01 0.00333333
0 0.00166667 0
0.0107663 3.12643e-05 0.00163722
0 0.00166667 0.01
0 0.00833333 0
0.0107717 0.00834531 -2.64949e-05
0.0107751 3.07671e-05 0.0082887
0.0107757 0.0100088 0.00163678
0.0107844 0.0100093 0.00828798
0.00179207 0.0100032 0.0099946
0 0.01 0.00833333
0.00896882 0.0100077 -2.23817e-05
0.00895825 2.53884e-05 -2.20803e-05
0.00897072 2.42926e-05 0.00996193
0.0089807 0.0100091 0.00996057
0 0 0.00833333
0.0107841 0.00834654 0.00995098
0.00178458 4.89106e-06 -4.42376e-06
0 0 0.00166667
0.00358074 0.0100058 -8.446e-06
0.010778 0.00169185 0.00995188
0.0107651 0.00169255 -2.6526e-05
0.00178702 4.5684e-06 0.00999498
0.0017893 0.0100035 -4.38619e-06
0 0.01 0.00166667
0.0107869 0.0100098 0.00995111
0 0 0.01
0.0107749 0.0100088 -2.69612e-05
0.0107776 3.02049e-05 0.00995231
0 0.01 0.01
0.0107649 3.15957e-05 -2.69995e-05
0 0.01 0
0 0 0
0.00537376 0.0100069 -1.25795e-05
0.0035789 8.79973e-06 0.00998778
0 0.00833333 0.01

CELLS 343 686
1 0
1 1
1 2
1 3
1 4
1 5
1 6
1 7
1 8
1 9
1 10
1 11
1 12
1 13
1 14
1 15
1 16
1 17
1 18
1 19
1 20
1 21
1 22
1 23
1 24
1 25
1 26
1 27
1 28
1 29
1 30
1 31
1 32
1 33
1 34
1 35
1 36
1 37
1 38
1 39
1 40
1 41
1 42
1 43
1 44
1 45
1 46
1 47
1 48
1 49
1 50
1 51
1 52
1 53
1 54
1 55
1 56
1 57
1 58
1 59
1 60
1 61
1 62
1 63
1 64
1 65
1 66
1 67
1 68
1 69
1 70
1 71
1 72
1 73
1 74
1 75
1 76
1 77
1 78
1 79
1 80
1 81
1 82
1 83
1 84
1 85
1 86
1 87
1 88
1 89
1 90
1 91
1 92
1 93
1 94
1 95
1 96
1 97
1 98
1 99
1 100
1 101
1 102
1 103
1 104
1 105
1 106
1 107
1 108
1 109
1 110
1 111
1 112
1 113
1 114
1 115
1 116
1 117
1 118
1 119
1 120
1 121
1 122
1 123
1 124
1 125
1 126
1 127
1 128
1 129
1 130
1 131
1 132
1 133
1 134
1 135
1 136
1 137
1 138
1 139
1 140
1 141
1 142
1 143
1 144
1 145
1 146
1 147
1 148
1 149
1 150
1 151
1 152
1 153
1 154
1 155
1 156
1 157
1 158
1 159
1 160
1 161
1 162
1 163
1 164
1 165
1 166
1 167
1 168
1 169
1 170
1 171
1 172
1 173
1 174
1 175
1 176
1 177
1 178
1 179
1 180
1 181
1 182
1 183
1 184
1 185
1 186
1 187
1 188
1 189
1 190
1 191
1 192
1 193
1 194
1 195
1 196
1 197
1 198
1 199
1 200
1 201
1 202
1 203
1 204
1 205
1 206
1 207
1 208
1 209
1 210
1 211
1 212
1 213
1 214
1 215
1 216
1 217
1 218
1 219
1 220
1 221
1 222
1 223
1 224
1 225
1 226
1 227
1 228
1 229
1 230
1 231
1 232
1 233
1 234
1 235
1 236
1 237
1 238
1 239
1 240
1 241
1 242
1 243
1 244
1 245
1 246
1 247
1 248
1 249
1 250
1 251
1 252
1 253
1 254
1 255
1 256
1 257
1 258
1 259
1 260
1 261
1 262
1 263
1 264
1 265
1 266
1 267
1 268
1 269
1 270
1 271
1 272
1 273
1 274
1 275
1 276
1 277
1 278
1 279
1 280
1 281
1 282
1 283
1 284
1 285
1 286
1 287
1 288
1 289
1 290
1 291
1 292
1 293
1 294
1 295
1 296
1 297
1 298
1 299
1 300
1 301
1 302
1 303
1 304
1 305
1 306
1 307
1 308
1 309
1 310
1 311
1 312
1 313
1 314
1 315
1 316
1 317
1 318
1 319
1 320
1 321
1 322
1 323
1 324
1 325
1 326
1 327
1 328
1 329
1 330
1 331
1 332
1 333
1 334
1 335
1 336
1 337
1 338
1 339
1 340
1 341
1 342

CELL_TYPES 343
1
1
1
1
1
1
1
1
1
1
1
1
1
1
1
1
1
1
1
1
1
1
1
1
1
1
1
1
1
1
1
1
1
1
1
1
1
1
1
1
1
1
1
1
1
1
1
1
1
1
1
1
1
1
1
1
1
1
1
1
1
1
1
1
1
1
1
1
1
1
1
1
1
1
1
1
1
1
1
1
1
1
1
1
1
1
1
1
1
1
1
1
1
1
1
1
1
1
1
1
1
1
1
1
1
1
1
1
1
1
1
1
1
1
1
1
1
1
1
1
1
1
1
1
1
1
1
1
1
1
1
1
1
1
1
1
1
1
1
1
1
1
1
1
1
1
1
1
1
1
1
1
1
1
1
1
1
1
1
1
1
1
1
1
1
1
1
1
1
1
1
1
1
1
1
1
1
1
1
1
1
1
1
1
1
1
1
1
1
1
1
1
1
1
1
1
1
1
1
1
1
1
1
1
1
1
1
1
1
1
1
1
1
1
1
1
1
1
1
1
1
1
1
1
1
1
1
1
1
1
1
1
1
1
1
1
1
1
1
1
1
1
1
1
1
1
1
1
1
1
1
1
1
1
1
1
1
1
1
1
1
1
1
1
1
1
1
1
1
1
1
1
1
1
1
1
1
1
1
1
1
1
1
1
1
1
1
1
1
1
1
1
1
1
1
1
1
1
1
1
1
1
1
1
1
1
1
1
1
1
1
1
1
1
1
1
1
1
1
1
1
1
1
1
1
1
1
1
1
1
1
1
1
1
1
1
1
1
1
1
1
1
1

POINT_DATA 343
FIELD FieldData 3

ExternalForceID_(#) 1 343 int
0
1
2
3
4
5
6
7
8
9
10
11
12
13
14
15
16
17
18
19
20
21
22
23
24
25
26
27
28
29
30
31
32
33
34
35
36
37
38
39
40
41
42
43
44
45
46
47
48
49
50
51
52
53
54
55
56
57
58
59
60
61
62
63
64
65
66
67
68
69
70
71
72
73
74
75
76
77
78
79
80
81
82
83
84
85
86
87
88
89
90
91
92
93
94
95
96
97
98
99
100
101
102
103
104
105
106
107
108
109
110
111
112
113
114
115
116
117
118
119
120
121
122
123
124
125
126
127
128
129
130
131
132
133
134
135
136
137
138
139
140
141
142
143
144
145
146
147
148
149
150
151
152
153
154
155
156
157
158
159
160
161
162
163
164
165
166
167
168
169
170
171
172
173
174
175
176
177
178
179
180
181
182
183
184
185
186
187
188
189
190
191
192
193
194
195
196
197
198
199
200
201
202
203
204
205
206
207
208
209
210
211
212
213
214
215
216
217
218
219
220
221
222
223
224
225
226
227
228
229
230
231
232
233
234
235
236
237
238
239
240
241
242
243
244
245
246
247
248
249
250
251
252
253
254
255
256
257
258
259
260
261
262
263
264
265
266
267
268
269
270
271
272
273
274
275
276
277
278
279
280
281
282
283
284
285
286
287
288
289
290
291
292
293
294
295
296
297
298
299
300
301
302
303
304
305
306
307
308
309
310
311
312
313
314
315
316
317
318
319
320
321
322
323
324
325
326
327
328
329
330
331
332
333
334
335
336
337
338
339
340
341
342

ExternalForceType_(0/1/2/3/4) 1 343 int
0
0
0
0
0
0
0
0
0
0
0
0
0
0
0
0
0
0
0
0
0
0
0
0
0
0
0
0
0
0
0
0
0
0
0
0
0
0
0
0
0
0
0
0
0
0
0
0
0
0
0
0
0
0
0
0
0
0
0
0
0
0
0
0
0
0
0
0
0
0
0
0
0
0
0
0
0
0
0
0
0
0
0
0
0
0
0
0
0
0
0
0
0
0
0
0
0
0
0
0
0
0
0
0
0
0
0
0
0
0
0
0
0
0
0
0
0
0
0
0
0
0
0
0
0
0
0
0
0
0
0
0
0
0
0
0
0
0
0
0
0
0
0
0
0
0
0
0
0
0
0
0
0
0
0
0
0
0
0
0
0
0
0
0
0
0
0
0
0
0
0
0
0
0
0
0
0
0
0
0
0
0
0
0
0
0
0
0
0
0
0
0
0
0
0
0
0
0
0
0
0
0
0
0
0
0
0
0
0
0
0
0
0
0
0
0
0
0
0
0
0
0
0
0
0
0
0
0
0
0
0
0
0
0
0
0
0
0
0
0
0
0
0
0
0
0
0
0
0
0
0
0
0
0
0
0
0
0
0
0
0
0
0
0
0
0
0
0
0
0
0
0
0
0
0
0
0
0
0
0
0
0
0
0
0
0
0
0
0
0
0
0
0
0
0
0
0
0
0
0
0
0
0
0
0
0
0
0
0
0
0
0
0
0
0
0
0
0
0
0
0
0
0
0
0
0
0
0
0
0
0
0
0
0
0
0
0
0
0
0
0
0
0

ExternalForce_(N) 3 343 double
0 -3.09568e-05 0
0 -0.000138619 0
0 -2.16714e-05 0
0 -0.000168226 0
0 -8.26002e-05 0
0 -8.9203e-05 0
0 -9.74165e-05 0
0 -7.37906e-05 0
0 -6.68156e-05 0
0 -5.47617e-05 0
0 -3.04981e-05 0
0 -0.000105531 0
0 -4.77758e-05 0
0 -0.000161821 0
0 -2.96713e-05 0
0 -7.9067e-05 0
0 -6.57564e-05 0
0 -0.000106704 0
0 -4.11017e-05 0
0 -8.006e-05 0
0 -6.02474e-05 0
0 -0.000115662 0
0 -2.18875e-05 0
0 -4.17098e-05 0
0 -0.000107827 0
0 -7.27379e-05 0
0 -4.13856e-05 0
0 -3.85027e-05 0
0 -3.029e-05 0
0 -0.000128774 0
0 -7.57947e-05 0
0 -0.000162261 0
0 -0.000116775 0
0 -7.15802e-05 0
0 -3.74431e-05 0
0 -0.000108892 0
0 -3.74072e-05 0
0 -0.000136493 0
0 -6.25303e-05 0
0 -7.85756e-05 0
0 -7.52544e-05 0
0 -0.000116589 0
0 -0.000160874 0
0 -2.73339e-05 0
0 -8.7662e-05 0
0 -2.53184e-05 0
0 -7.42972e-05 0
0 -4.15199e-05 0
0 -0.000128792 0
0 -3.72945e-05 0
0 -2.72189e-05 0
0 -7.03157e-05 0
0 -0.000119003 0
0 -5.02041e-05 0
0 -8.04153e-05 0
0 -4.4939e-05 0
0 -2.74192e-05 0
0 -3.19929e-05 0
0 -4.04607e-05 0
0 -2.07889e-05 0
0 -3.28809e-05 0
0 -3.54797e-05 0
0 -0.000153858 0
0 -7.19739e-05 0
0 -8.09026e-05 0
0 -4.90862e-05 0
0 -2.77255e-05 0
0 -7.06591e-05 0
0 -3.20606e-05 0
0 -4.10794e-05 0
0 -1.98932e-05 0
0 -2.37551e-05 0
0 -3.0591e-05 0
0 -5.86107e-05 0
0 -5.75946e-05 0
0 -4.01595e-05 0
0 -5.35099e-05 0
0 -2.24477e-05 0
0 -4.41213e-05 0
0 -4.29866e-05 0
0 -4.42325e-05 0
0 -4.30889e-05 0
0 -4.19155e-05 0
0 -5.21923e-05 0
0 -1.5029e-05 0
0 -2.34331e-05 0
0 -1.9903e-05 0
0 -4.30461e-05 0
0 -3.11931e-05 0
0 -3.08326e-05 0
0 -4.52797e-05 0
0 -5.7648e-05 0
0 -8.02544e-05 0
0 -2.43623e-05 0
0 -0.000150893 0
0 -3.43039e-05 0
0 -7.21258e-05 0
0 -1.97489e-05 0
0 -2.00202e-05 0
0 -7.83017e-05 0
0 -4.32908e-05 0
0 -7.00326e-05 0
0 -1.17841e-05 0
0 -4.93779e-05 0
0 -1.58193e-05 0
0 -4.04762e-05 0
0 -8.57147e-05 0
0 -4.2953e-05 0
0 -7.82027e-05 0
0 -2.09499e-05 0
0 -3.31713e-05 0
0 -9.30599e-05 0
0 -7.26197e-05 0
0 -1.76801e-05 0
0 -2.06228e-05 0
0 -7.8371e-05 0
0 -1.84411e-05 0
0 -7.30662e-05 0
0 -4.11806e-05 0
0 -2.3265e-05 0
0 -4.23503e-05 0
0 -5.94919e-05 0
0 -4.22718e-05 0
0 -2.12723e-05 0
0 -1.86252e-05 0
0 -1.77849e-05 0
0 -3.82356e-05 0
0 -2.39658e-05 0
0 -1.62481e-05 0
0 -7.86148e-05 0
0 -1.61387e-05 0
0 -2.34763e-05 0
0 -2.95637e-05 0
0 -2.93742e-05 0
0 -1.33947e-05 0
0 -1.83735e-05 0
0 -2.05639e-05 0
0 -1.91062e-05 0
0 -1.84053e-05 0
0 -6.25793e-05 0
0 -4.49914e-05 0
0 -1.98914e-05 0
0 -1.58922e-05 0
0 -2.367e-05 0
0 -3.81266e-05 0
0 -4.36518e-05 0
0 -2.25472e-05 0
0 -0.000115119 0
0 -3.05886e-05 0
0 -1.32828e-05 0
0 -3.38507e-05 0
0 -1.78391e-05 0
0 -2.88237e-05 0
0 -1.34771e-05 0
0 -2.36876e-05 0
0 -2.06453e-05 0
0 -2.58912e-05 0
0 -2.10097e-05 0
0 -1.7602e-05 0
0 -3.13896e-05 0
0 -1.34386e-05 0
0 -2.38863e-05 0
0 -2.04203e-05 0
0 -1.33426e-05 0
0 -2.13076e-05 0
0 -1.86316e-05 0
0 -3.10974e-05 0
0 -2.56228e-05 0
0 -2.33161e-05 0
0 -1.57181e-05 0
0 -1.87061e-05 0
0 -5.38771e-05 0
0 -1.84308e-05 0
0 -3.08341e-05 0
0 -2.91652e-05 0
0 -1.16203e-05 0
0 -1.85667e-05 0
0 -2.00287e-05 0
0 -2.68375e-05 0
0 -2.37799e-05 0
0 -3.16945e-05 0
0 -3.13676e-05 0
0 -3.15313e-05 0
0 -1.90796e-05 0
0 -1.58134e-05 0
0 -1.83326e-05 0
0 -3.16308e-05 0
0 -2.07128e-05 0
0 -2.91276e-05 0
0 -6.03597e-05 0
0 -2.26581e-05 0
0 -2.35174e-05 0
0 -2.33506e-05 0
0 -2.59482e-05 0
0 -1.63393e-05 0
0 -1.78912e-05 0
0 -2.02658e-05 0
0 -5.62379e-05 0
0 -2.04507e-05 0
0 -2.14176e-05 0
0 -2.38895e-05 0
0 -3.05955e-05 0
0 -3.11287e-05 0
0 -2.01544e-05 0
0 -1.92198e-05 0
0 -2.99909e-05 0
0 -6.32085e-05 0
0 -2.04829e-05 0
0 -2.67435e-05 0
0 -2.11611e-05 0
0 -1.83262e-05 0
0 -1.96474e-05 0
0 -2.0699e-05 0
0 -2.83503e-05 0
0 -2.27807e-05 0
0 -2.35234e-05 0
0 -1.93874e-05 0
0 -6.29086e-05 0
0 -2.12117e-05 0
0 -3.22943e-05 0
0 -2.06229e-05 0
0 -2.61501e-05 0
0 -1.90721e-05 0
0 -2.86319e-05 0
0 -2.53212e-05 0
0 -2.07681e-05 0
0 -2.05553e-05 0
0 -1.88077e-05 0
0 -6.92631e-05 0
0 -2.20924e-05 0
0 -2.02457e-05 0
0 -6.16224e-05 0
0 -2.08117e-05 0
0 -2.85397e-05 0
0 -2.08875e-05 0
0 -6.32617e-05 0
0 -1.39008e-05 0
0 -2.0289e-05 0
0 -6.45558e-05 0
0 -2.47785e-05 0
0 -2.35177e-05 0
0 -7.28089e-06 0
0 -2.18143e-05 0
0 -6.93323e-06 0
0 -6.87344e-06 0
0 -8.76768e-06 0
0 -2.48719e-05 0
0 -2.22231e-05 0
0 -1.31068e-05 0
0 -7.69816e-06 0
0 -2.27889e-05 0
0 -5.95166e-06 0
0 -6.55579e-06 0
0 -6.71305e-06 0
0 -2.46468e-05 0
0 -2.27228e-05 0
0 -7.6878e-06 0
0 -6.67903e-06 0
0 -6.10861e-05 0
0 -6.6189e-06 0
0 -6.52665e-06 0
0 -6.87836e-06 0
0 -1.78856e-05 0
0 -1.87072e-05 0
0 -6.73674e-06 0
0 -6.91401e-06 0
0 -1.82903e-05 0
0 -2.2423e-05 0
0 -6.67521e-06 0
0 -7.02401e-06 0
0 -1.78908e-05 0
0 -5.89658e-06 0
0 -1.98938e-05 0
0 -7.3162e-06 0
0 -5.63509e-06 0
0 -1.76631e-05 0
0 -1.42638e-05 0
0 -2.22707e-05 0
0 -1.77204e-05 0
0 -2.11264e-05 0
0 -1.75686e-05 0
0 -1.76047e-05 0
0 -6.69346e-06 0
0 -2.20467e-05 0
0 -1.42479e-05 0
0 -1.76144e-05 0
0 -6.84615e-06 0
0 -6.12404e-06 0
0 -6.50125e-06 0
0 -1.41879e-05 0
0 -1.37476e-05 0
0 -2.11168e-05 0
0 -1.79377e-05 0
0 -1.37282e-05 0
0 -1.41198e-05 0
0 -2.15061e-05 0
0 -6.84475e-06 0
0 -1.74349e-05 0
0 -1.75758e-05 0
0 -6.41828e-06 0
0 -7.20025e-06 0
0 -2.30432e-05 0
0 -6.96894e-06 0
0 -6.44499e-06 0
0 -6.14414e-06 0
0 -2.14766e-05 0
0 -6.00855e-06 0
0 -5.92427e-06 0
0 -5.81567e-06 0
0 -5.02303e-06 0
0 -5.01945e-06 0
0 -4.85271e-06 0
0 -4.87573e-06 0
0 -4.8684e-06 0
0 -5.22951e-06 0
0 -4.84801e-06 0
0 -4.88396e-06 0
0 -4.77612e-06 0
0 -4.81304e-06 0
0 -4.85251e-06 0
0 -4.8555e-06 0
0 -4.82575e-06 0
0 -4.80313e-06 0
0 -4.86923e-06 0
0 -4.85781e-06 0
0 -4.73027e-06 0
0 -1.08748e-05 0
0 -5.22863e-06 0
0 -5.34413e-06 0
0 -5.26459e-06 0
0 -5.05624e-06 0
0 -4.92238e-06 0
0 -5.43253e-06 0
0 -5.43253e-06 0
0 -5.43253e-06 0
0 -5.43253e-06 0
0 -5.43253e-06 0
0 -5.43253e-06 0
0 -5.40321e-06 0
0 -5.40321e-06 0
0 -7.3113e-06 0
0 -6.98147e-06 0
0 -4.8949e-06 0

