# vtk DataFile Version 4.2
vtk output
ASCII
DATASET UNSTRUCTURED_GRID

POINTS 343 double
0.00113368 0.00419565 -3.06067e-07
0.00219194 0.00498427 0.00217439
0 0.00419538 0.00112517
0.0019517 0.00195621 0.00194126
0.00523586 0.00241995 0.00502903
0.00523327 0.00384075 0.00639381
0.0077117 0.004798 0.0049934
0.0062938 0.00486547 0.00368845
0.00692294 0.00330866 0.00690791
0.00504448 0.00500169 0.00499695
0.00423953 0.00112879 0.00999554
0.00535174 0.0020944 0.00789974
0.00425297 4.33631e-06 0.00831426
0.00203587 0.00200411 0.00803223
0.0043419 0.00254186 0.00999536
0.00702937 0.00646366 0.00694082
0.00647986 0.00619704 0.00517888
0.00228655 0.00218687 0.00514512
0 0.00143586 0.00417514
0.00161135 0.00346714 0.00403653
0.00692284 0.0032147 0.00315781
0.00784978 0.00224035 0.00505806
0 0.00270918 0.00154168
0.00421334 0.00143965 -1.14093e-06
0.0050724 0.00220118 0.00219524
0.00400718 0.00353342 0.00160129
0.00136272 4.48979e-07 0.00405939
0.00424421 4.3778e-06 0.00168591
0.00264983 0.0069542 -6.18595e-07
0.00195425 0.00805408 0.00194403
0.00412667 0.00625345 0.00164334
0.00808257 0.0080075 0.0079889
0.00806047 0.0048395 0.00801384
0.00848213 0.00610482 0.00594088
0.0101026 0.0088583 0.00418469
0.00765058 0.00765541 0.0049585
0.00864271 0.0100043 0.00416108
0.00805295 0.00799303 0.00201231
0.00357774 0.00304186 0.00695757
0.00449048 0.00366966 0.0083204
0.00394369 0.00160919 0.00596673
0.00505173 0.00767724 0.00767278
0.00200708 0.00800943 0.00798898
0.00284789 0.0100006 0.00712621
0.00394906 0.00840539 0.00595591
0 0.00695361 0.00262895
0.00166176 0.00624047 0.00408724
0 0.0040177 0.00850214
0.00233806 0.00498756 0.00766057
0.00144819 0.00417544 0.00999945
0.00725036 0.00713572 0.00998985
0.00618386 0.00598387 0.00841147
0.00206961 0.00794287 0.00474109
0.00307194 0.00694587 0.00646653
0.00160202 0.0060794 0.0059254
0.010111 0.00581845 0.00830329
0 0.00718191 0.00711644
0.0015991 0.00577464 -4.36292e-07
0 0.00577432 0.00158701
0.0101076 0.00719077 0.00710362
0.00290126 0.00335285 0.00999745
0.0101141 0.00145153 0.00416623
0.00814546 0.00197273 0.00197471
0.00849593 0.00353082 0.00399245
0.00377434 0.00165619 0.00412624
0.00152055 0.0100003 0.00581457
0.00285104 2.25356e-06 0.00712626
0.00618337 0.00418597 0.00837003
0.0101043 0.00728252 0.00418677
0.00865748 1.40157e-05 0.00416096
0.00338011 0.00287498 -7.68567e-07
0.00273616 0.00154322 0.00999762
0.00285923 2.4162e-06 0.00283066
0.00485036 0.00520223 0.00755043
0.00319367 0.00315029 0.00316579
0 0.00849157 0.00581511
0.00492143 0.00367942 0.00378349
0.00155339 0.00270948 -3.92828e-07
0.00585477 0.00832811 0.0099924
0.00603422 0.0100022 0.00849893
0.00424749 0.0100012 0.0083141
0.00405438 0.00850507 0.00999576
0.0101046 0.00849948 0.00580406
0.00317625 0.00683683 0.0031493
0 0.00748929 0.00137438
0.00138488 0.00748958 -3.76822e-07
0 0.00287343 0.00335182
0 0.00580816 0.00831736
0 0.00429792 0.00253898
0.00255909 0.00429858 -5.35527e-07
0.00144797 0.00582001 0.00999942
0.00522659 0.00647786 0.00639648
0.00363916 0.00651329 0.0082314
0.00702698 0.00263472 0.00999038
0.00811151 0.00196872 0.00802551
0.00704568 9.90141e-06 0.00307756
0.00608214 0.00167113 0.00360905
0.0101108 0.00288729 0.00334395
0 0.00140616 0.00256446
0.00643172 0.00823111 0.00641544
0.00587636 0.00144211 -1.79038e-06
0.00609502 0.00355717 0.00160039
0.00318011 0.0100008 0.00582353
0.00863893 0.0100044 0.00582471
0.00258624 0.00140785 -5.5603e-07
0.00603878 7.87446e-06 0.00149123
0.00633602 0.00829094 0.0036135
0.00865357 1.3886e-05 0.00582445
0.00627171 0.00167976 0.00635978
0.00141825 0.00256472 0.00999946
0.00718034 0.00718585 -2.59737e-06
0.0052103 0.00769215 0.00216661
0.0059961 0.00609628 0.00159927
0 0.00686719 0.00578184
0.010113 0.00142205 0.00255735
0.00179106 0.00361112 0.00640708
0.0101018 0.00849485 0.00261656
0.00849576 0.00619614 0.00412617
0.00602848 0.0100021 0.00149146
0.00704786 1.00301e-05 0.00691928
0.0101157 0.001451 0.0058084
0.00848705 0.0035826 0.00605205
0.00152116 5.55492e-07 0.0058146
0 0.0013659 0.00748679
0.00138119 5.85094e-07 0.00752852
0.0101064 0.00687608 0.00577099
0.00586428 0.00849387 -1.7154e-06
0 0.0075208 0.00859127
0.00137781 0.00748721 0.00999939
0.00426594 0.00820717 0.00362626
0.00867422 0.0100046 0.00750138
0.0101065 0.00863795 0.00751314
0.00583738 0.00159297 0.00999251
0.00733676 0.00419413 0.00998974
0 0.0057735 0.00666667
0.00138079 0.0100003 0.00752842
0 0.00863025 0.00752641
0.00868345 1.42984e-05 0.0025017
0.0101036 0.0069622 0.00262177
0.00854177 0.00634881 0.00215813
0.00860009 0.00583095 0.00998713
0.00757461 0.0013839 0.00998923
0.008689 1.41203e-05 0.00750154
0.010118 0.00138157 0.00747344
0 0.00143551 0.00581971
0.0060437 7.71922e-06 0.00849918
0.00425522 4.62881e-06 0.00339762
0.0080125 0.00471502 0.0020303
0.0101077 0.00431021 0.0025323
0.00426306 0.0100012 0.00666367
0.00285584 0.0100006 0.00283077
0.00132361 4.91329e-07 0.00241761
0 0.00727418 0.00419576
0.0101091 0.00578409 0.00665449
0.0070341 0.0100029 0.00307758
0.00758189 0.00864118 0.00998911
0 0.00574334 0.00336387
0 0.0043297 0.00416652
0.00694016 0.00578846 0.0099903
0.0101141 0.00303588 0.00690264
0.00426898 4.58696e-06 0.00666361
0.00249878 0.0100005 0.00861002
0.00756343 0.00137592 -2.88878e-06
0.00583137 0.00666939 0.00999249
0.0101091 0.00752949 0.00857697
0.008698 0.00755955 0.00998686
0.00698232 0.00302937 -2.57029e-06
0.00339118 0.0057441 -8.79176e-07
0.00759369 0.00863415 -2.93248e-06
0.00758167 0.0100034 0.00138374
0.00583167 0.00686977 -1.75908e-06
0.00703945 0.00637488 0.00302924
0.00759438 1.15564e-05 0.00138369
0.00291166 0.005 0.00999744
0.0043728 0.00583497 0.00999509
0.004373 0.00416852 0.0099951
0.00758786 0.0100037 0.00860584
0.00250109 2.08465e-06 0.00861016
0.0101057 0.00575426 0.00335609
0 0.00302218 0.00691532
0.0101142 0.00403019 0.00848785
0.00858747 0.00402719 -3.30734e-06
0.0101099 0.00272329 0.00153599
0 0.00244495 0.00857025
0.00246786 0.00857108 0.00999796
0.00760076 1.13989e-05 0.00860611
0.00858351 0.00263423 0.00998722
0.0089499 0.0042034 0.00998643
0.00571995 0.010002 0.00582881
0.0052318 0.00758565 0.00502893
0.0056906 0.010002 0.00421174
0.00703596 0.010003 0.00691931
0.00305088 0.00691603 0.0099972
0.0042018 0.00433139 -1.19111e-06
0.00286197 2.32929e-06 0.0044031
0.0031837 2.75145e-06 0.00582356
0.0101072 0.0042079 0.00111983
0.00366753 0.00833876 0.00158673
0.0101088 0.00434174 0.00415735
0.00672703 0.00577777 -2.29132e-06
0.00866854 0.0100044 0.00250176
0 0.00848692 0.00262374
0.00136244 0.0100004 0.00405947
0 0.00885053 0.00419359
0.00422777 0.00885191 -1.1912e-06
0.00423807 0.0100013 0.00168607
0.00504339 0.00479368 0.00237659
0.00728789 0.00452796 -2.65256e-06
0.0056994 7.1725e-06 0.00421184
0.00572868 7.17422e-06 0.0058289
0.00132336 0.0100003 0.00241763
0.00865899 0.00245612 -3.36856e-06
0.0101119 0.00453359 0.00720652
0.00717901 0.010003 0.00499452
0.00580358 0.00336817 0.00999268
0.0024807 2.03253e-06 0.00135551
0.0101173 0.00245942 0.00855577
0.00241579 0.00479196 0.00499883
0.00588645 0.0043342 -1.94208e-06
0.0083973 0.00581506 -3.33277e-06
0.00552807 0.0100019 0.00721531
0.0101106 0.00434217 0.00582213
0.00544752 0.0100018 0.00277308
0.00719097 1.02994e-05 0.00499458
0.00285879 0.0100006 0.00440321
0 0.00452174 0.00721958
0.00456512 0.00722162 0.00999478
0.00553638 6.71282e-06 0.00721532
0.0036344 0.00507506 0.00359477
0.00428666 0.0100012 0.00500572
0.00429294 4.79489e-06 0.00500572
0.00370391 0.00521806 0.00617255
0 0.005744 0.00499998
0 0.00433013 0.00583333
0.00504277 0.0057459 -1.53417e-06
0.0050284 0.00634101 0.00355106
0.00545629 6.70766e-06 0.00277285
0.0101072 0.00575501 0.00498984
0.00372274 0.00640889 0.00484211
0.00580259 0.00500319 0.00999263
0.0101047 0.00578511 0.00158138
0 0.00666667 0
0.0086728 0.00752687 -3.48667e-06
0.00336411 3.69294e-06 -1.26374e-06
0 0.01 0.00666667
0.00504873 0.0100017 0.00999388
0 0.00288419 0.00499914
0.0101022 0.00749741 0.00136891
0.0101029 0.00667617 -4.76279e-06
0 0.005 0.01
0.00504473 0.00288805 -1.46373e-06
0 0.005 0
0.0101171 1.87086e-05 0.00332538
0.0101048 0.010006 0.0066544
0.00423029 0.00727542 -1.17561e-06
0.0101122 0.00289821 0.00498898
0.00504919 6.56653e-06 -1.98745e-06
0 0 0.00666667
0.00383313 0.0036183 0.00522425
0.00505559 6.08385e-06 0.00999426
0.0101203 1.84827e-05 0.00665427
0 0 0.005
0.00886185 0.0100045 0.00121571
0.0101007 0.00878743 0.00121465
0.0101186 1.85527e-05 0.00498977
0.0101057 0.00501157 -4.56324e-06
0.00122943 0.00122052 -3.18964e-07
0 0.00122008 0.00122008
0 0.00333333 0.01
0 0.00666667 0.01
0.00886286 0.00878533 -3.57418e-06
0.0101013 0.0100059 0.00332527
0.0042488 0.0100012 0.00339771
0.0101127 0.00667607 0.00998359
0 0.00333333 0
0 0.00122008 0.00877992
0.00123075 6.62456e-07 0.00877952
0.00123056 0.00122045 0.00999952
0.00886902 0.0100049 0.00876723
0.00123065 0.00878031 0.00999947
0 0.00877992 0.00877992
0.0101078 0.00878752 0.00876527
0.00672393 0.0100025 -2.4136e-06
0.0101126 0.00123652 0.00121454
0.00123043 0.0100003 0.00877931
0.00887161 0.00878567 0.00998638
0.0101152 0.00501127 0.00998362
0 0 0.00333333
0.00673559 1.0025e-05 -2.93378e-06
0.00887693 1.50732e-05 0.00121558
0.00122138 6.23118e-07 0.00121109
0 0.00877992 0.00122008
0.00122942 0.00878018 -3.43276e-07
0.00122102 0.0100003 0.00121118
0.0101199 0.00123607 0.00876518
0.0088834 0.00123302 0.00998657
0.00674349 9.44425e-06 0.0099911
0.00887395 0.00123363 -3.59905e-06
0.00888406 1.46775e-05 0.00876747
0.0101084 0.0033468 -4.49592e-06
0.00336489 0.0100011 0.00999664
0.00247805 0.0100005 0.00135547
0.0067326 0.0100029 0.00999066
0.0101181 0.00334671 0.00998377
0 0.01 0.005
0.00264442 0.00848754 -6.82718e-07
0.0101029 0.0100059 0.00499013
0 0.01 0.00333333
0 0.00166667 0
0.0101158 1.87388e-05 0.00166051
0 0.00166667 0.01
0 0.00833333 0
0.010101 0.00834101 -4.34024e-06
0.0101223 1.83747e-05 0.00831909
0.0101001 0.0100061 0.00166064
0.0101067 0.0100062 0.00831904
0.00168156 0.0100003 0.00999891
0 0.01 0.00833333
0.00840942 0.0100039 -3.59651e-06
0.0084238 1.4264e-05 -3.74875e-06
0.00843293 1.36068e-05 0.00998769
0.00841856 0.0100046 0.00998731
0 0 0.00833333
0.0101103 0.00834141 0.00998366
0.0016809 1.43772e-06 -5.91079e-07
0 0 0.00166667
0.00335981 0.0100008 -9.40059e-07
0.0101211 0.00168202 0.0099838
0.0101115 0.00168251 -4.55896e-06
0.00168249 1.22039e-06 0.00999898
0.00167959 0.0100003 -5.11193e-07
0 0.01 0.00166667
0.0101085 0.0100064 0.00998374
0 0 0.01
0.0100992 0.0100061 -4.45069e-06
0.0101243 1.81209e-05 0.00998407
0 0.01 0.01
0.0101148 1.90045e-05 -4.88022e-06
0 0.01 0
0 0 0
0.00504121 0.0100016 -1.50967e-06
0.00336863 3.06578e-06 0.00999683
0 0.00833333 0.01

CELLS 343 686
1 0
1 1
1 2
1 3
1 4
1 5
1 6
1 7
1 8
1 9
1 10
1 11
1 12
1 13
1 14
1 15
1 16
1 17
1 18
1 19
1 20
1 21
1 22
1 23
1 24
1 25
1 26
1 27
1 28
1 29
1 30
1 31
1 32
1 33
1 34
1 35
1 36
1 37
1 38
1 39
1 40
1 41
1 42
1 43
1 44
1 45
1 46
1 47
1 48
1 49
1 50
1 51
1 52
1 53
1 54
1 55
1 56
1 57
1 58
1 59
1 60
1 61
1 62
1 63
1 64
1 65
1 66
1 67
1 68
1 69
1 70
1 71
1 72
1 73
1 74
1 75
1 76
1 77
1 78
1 79
1 80
1 81
1 82
1 83
1 84
1 85
1 86
1 87
1 88
1 89
1 90
1 91
1 92
1 93
1 94
1 95
1 96
1 97
1 98
1 99
1 100
1 101
1 102
1 103
1 104
1 105
1 106
1 107
1 108
1 109
1 110
1 111
1 112
1 113
1 114
1 115
1 116
1 117
1 118
1 119
1 120
1 121
1 122
1 123
1 124
1 125
1 126
1 127
1 128
1 129
1 130
1 131
1 132
1 133
1 134
1 135
1 136
1 137
1 138
1 139
1 140
1 141
1 142
1 143
1 144
1 145
1 146
1 147
1 148
1 149
1 150
1 151
1 152
1 153
1 154
1 155
1 156
1 157
1 158
1 159
1 160
1 161
1 162
1 163
1 164
1 165
1 166
1 167
1 168
1 169
1 170
1 171
1 172
1 173
1 174
1 175
1 176
1 177
1 178
1 179
1 180
1 181
1 182
1 183
1 184
1 185
1 186
1 187
1 188
1 189
1 190
1 191
1 192
1 193
1 194
1 195
1 196
1 197
1 198
1 199
1 200
1 201
1 202
1 203
1 204
1 205
1 206
1 207
1 208
1 209
1 210
1 211
1 212
1 213
1 214
1 215
1 216
1 217
1 218
1 219
1 220
1 221
1 222
1 223
1 224
1 225
1 226
1 227
1 228
1 229
1 230
1 231
1 232
1 233
1 234
1 235
1 236
1 237
1 238
1 239
1 240
1 241
1 242
1 243
1 244
1 245
1 246
1 247
1 248
1 249
1 250
1 251
1 252
1 253
1 254
1 255
1 256
1 257
1 258
1 259
1 260
1 261
1 262
1 263
1 264
1 265
1 266
1 267
1 268
1 269
1 270
1 271
1 272
1 273
1 274
1 275
1 276
1 277
1 278
1 279
1 280
1 281
1 282
1 283
1 284
1 285
1 286
1 287
1 288
1 289
1 290
1 291
1 292
1 293
1 294
1 295
1 296
1 297
1 298
1 299
1 300
1 301
1 302
1 303
1 304
1 305
1 306
1 307
1 308
1 309
1 310
1 311
1 312
1 313
1 314
1 315
1 316
1 317
1 318
1 319
1 320
1 321
1 322
1 323
1 324
1 325
1 326
1 327
1 328
1 329
1 330
1 331
1 332
1 333
1 334
1 335
1 336
1 337
1 338
1 339
1 340
1 341
1 342

CELL_TYPES 343
1
1
1
1
1
1
1
1
1
1
1
1
1
1
1
1
1
1
1
1
1
1
1
1
1
1
1
1
1
1
1
1
1
1
1
1
1
1
1
1
1
1
1
1
1
1
1
1
1
1
1
1
1
1
1
1
1
1
1
1
1
1
1
1
1
1
1
1
1
1
1
1
1
1
1
1
1
1
1
1
1
1
1
1
1
1
1
1
1
1
1
1
1
1
1
1
1
1
1
1
1
1
1
1
1
1
1
1
1
1
1
1
1
1
1
1
1
1
1
1
1
1
1
1
1
1
1
1
1
1
1
1
1
1
1
1
1
1
1
1
1
1
1
1
1
1
1
1
1
1
1
1
1
1
1
1
1
1
1
1
1
1
1
1
1
1
1
1
1
1
1
1
1
1
1
1
1
1
1
1
1
1
1
1
1
1
1
1
1
1
1
1
1
1
1
1
1
1
1
1
1
1
1
1
1
1
1
1
1
1
1
1
1
1
1
1
1
1
1
1
1
1
1
1
1
1
1
1
1
1
1
1
1
1
1
1
1
1
1
1
1
1
1
1
1
1
1
1
1
1
1
1
1
1
1
1
1
1
1
1
1
1
1
1
1
1
1
1
1
1
1
1
1
1
1
1
1
1
1
1
1
1
1
1
1
1
1
1
1
1
1
1
1
1
1
1
1
1
1
1
1
1
1
1
1
1
1
1
1
1
1
1
1
1
1
1
1
1
1
1
1
1
1
1
1
1
1
1
1
1
1
1
1
1
1
1
1
1
1
1
1
1
1

POINT_DATA 343
FIELD FieldData 3

ExternalForceID_(#) 1 343 int
0
1
2
3
4
5
6
7
8
9
10
11
12
13
14
15
16
17
18
19
20
21
22
23
24
25
26
27
28
29
30
31
32
33
34
35
36
37
38
39
40
41
42
43
44
45
46
47
48
49
50
51
52
53
54
55
56
57
58
59
60
61
62
63
64
65
66
67
68
69
70
71
72
73
74
75
76
77
78
79
80
81
82
83
84
85
86
87
88
89
90
91
92
93
94
95
96
97
98
99
100
101
102
103
104
105
106
107
108
109
110
111
112
113
114
115
116
117
118
119
120
121
122
123
124
125
126
127
128
129
130
131
132
133
134
135
136
137
138
139
140
141
142
143
144
145
146
147
148
149
150
151
152
153
154
155
156
157
158
159
160
161
162
163
164
165
166
167
168
169
170
171
172
173
174
175
176
177
178
179
180
181
182
183
184
185
186
187
188
189
190
191
192
193
194
195
196
197
198
199
200
201
202
203
204
205
206
207
208
209
210
211
212
213
214
215
216
217
218
219
220
221
222
223
224
225
226
227
228
229
230
231
232
233
234
235
236
237
238
239
240
241
242
243
244
245
246
247
248
249
250
251
252
253
254
255
256
257
258
259
260
261
262
263
264
265
266
267
268
269
270
271
272
273
274
275
276
277
278
279
280
281
282
283
284
285
286
287
288
289
290
291
292
293
294
295
296
297
298
299
300
301
302
303
304
305
306
307
308
309
310
311
312
313
314
315
316
317
318
319
320
321
322
323
324
325
326
327
328
329
330
331
332
333
334
335
336
337
338
339
340
341
342

ExternalForceType_(0/1/2/3/4) 1 343 int
0
0
0
0
0
0
0
0
0
0
0
0
0
0
0
0
0
0
0
0
0
0
0
0
0
0
0
0
0
0
0
0
0
0
0
0
0
0
0
0
0
0
0
0
0
0
0
0
0
0
0
0
0
0
0
0
0
0
0
0
0
0
0
0
0
0
0
0
0
0
0
0
0
0
0
0
0
0
0
0
0
0
0
0
0
0
0
0
0
0
0
0
0
0
0
0
0
0
0
0
0
0
0
0
0
0
0
0
0
0
0
0
0
0
0
0
0
0
0
0
0
0
0
0
0
0
0
0
0
0
0
0
0
0
0
0
0
0
0
0
0
0
0
0
0
0
0
0
0
0
0
0
0
0
0
0
0
0
0
0
0
0
0
0
0
0
0
0
0
0
0
0
0
0
0
0
0
0
0
0
0
0
0
0
0
0
0
0
0
0
0
0
0
0
0
0
0
0
0
0
0
0
0
0
0
0
0
0
0
0
0
0
0
0
0
0
0
0
0
0
0
0
0
0
0
0
0
0
0
0
0
0
0
0
0
0
0
0
0
0
0
0
0
0
0
0
0
0
0
0
0
0
0
0
0
0
0
0
0
0
0
0
0
0
0
0
0
0
0
0
0
0
0
0
0
0
0
0
0
0
0
0
0
0
0
0
0
0
0
0
0
0
0
0
0
0
0
0
0
0
0
0
0
0
0
0
0
0
0
0
0
0
0
0
0
0
0
0
0
0
0
0
0
0
0
0
0
0
0
0
0
0
0
0
0
0
0
0
0
0
0
0
0

ExternalForce_(N) 3 343 double
0 -3.09568e-05 0
0 -0.000138619 0
0 -2.16714e-05 0
0 -0.000168226 0
0 -8.26002e-05 0
0 -8.9203e-05 0
0 -9.74165e-05 0
0 -7.37906e-05 0
0 -6.68156e-05 0
0 -5.47617e-05 0
0 -3.04981e-05 0
0 -0.000105531 0
0 -4.77758e-05 0
0 -0.000161821 0
0 -2.96713e-05 0
0 -7.9067e-05 0
0 -6.57564e-05 0
0 -0.000106704 0
0 -4.11017e-05 0
0 -8.006e-05 0
0 -6.02474e-05 0
0 -0.000115662 0
0 -2.18875e-05 0
0 -4.17098e-05 0
0 -0.000107827 0
0 -7.27379e-05 0
0 -4.13856e-05 0
0 -3.85027e-05 0
0 -3.029e-05 0
0 -0.000128774 0
0 -7.57947e-05 0
0 -0.000162261 0
0 -0.000116775 0
0 -7.15802e-05 0
0 -3.74431e-05 0
0 -0.000108892 0
0 -3.74072e-05 0
0 -0.000136493 0
0 -6.25303e-05 0
0 -7.85756e-05 0
0 -7.52544e-05 0
0 -0.000116589 0
0 -0.000160874 0
0 -2.73339e-05 0
0 -8.7662e-05 0
0 -2.53184e-05 0
0 -7.42972e-05 0
0 -4.15199e-05 0
0 -0.000128792 0
0 -3.72945e-05 0
0 -2.72189e-05 0
0 -7.03157e-05 0
0 -0.000119003 0
0 -5.02041e-05 0
0 -8.04153e-05 0
0 -4.4939e-05 0
0 -2.74192e-05 0
0 -3.19929e-05 0
0 -4.04607e-05 0
0 -2.07889e-05 0
0 -3.28809e-05 0
0 -3.54797e-05 0
0 -0.000153858 0
0 -7.19739e-05 0
0 -8.09026e-05 0
0 -4.90862e-05 0
0 -2.77255e-05 0
0 -7.06591e-05 0
0 -3.20606e-05 0
0 -4.10794e-05 0
0 -1.98932e-05 0
0 -2.37551e-05 0
0 -3.0591e-05 0
0 -5.86107e-05 0
0 -5.75946e-05 0
0 -4.01595e-05 0
0 -5.35099e-05 0
0 -2.24477e-05 0
0 -4.41213e-05 0
0 -4.29866e-05 0
0 -4.42325e-05 0
0 -4.30889e-05 0
0 -4.19155e-05 0
0 -5.21923e-05 0
0 -1.5029e-05 0
0 -2.34331e-05 0
0 -1.9903e-05 0
0 -4.30461e-05 0
0 -3.11931e-05 0
0 -3.08326e-05 0
0 -4.52797e-05 0
0 -5.7648e-05 0
0 -8.02544e-05 0
0 -2.43623e-05 0
0 -0.000150893 0
0 -3.43039e-05 0
0 -7.21258e-05 0
0 -1.97489e-05 0
0 -2.00202e-05 0
0 -7.83017e-05 0
0 -4.32908e-05 0
0 -7.00326e-05 0
0 -1.17841e-05 0
0 -4.93779e-05 0
0 -1.58193e-05 0
0 -4.04762e-05 0
0 -8.57147e-05 0
0 -4.2953e-05 0
0 -7.82027e-05 0
0 -2.09499e-05 0
0 -3.31713e-05 0
0 -9.30599e-05 0
0 -7.26197e-05 0
0 -1.76801e-05 0
0 -2.06228e-05 0
0 -7.8371e-05 0
0 -1.84411e-05 0
0 -7.30662e-05 0
0 -4.11806e-05 0
0 -2.3265e-05 0
0 -4.23503e-05 0
0 -5.94919e-05 0
0 -4.22718e-05 0
0 -2.12723e-05 0
0 -1.86252e-05 0
0 -1.77849e-05 0
0 -3.82356e-05 0
0 -2.39658e-05 0
0 -1.62481e-05 0
0 -7.86148e-05 0
0 -1.61387e-05 0
0 -2.34763e-05 0
0 -2.95637e-05 0
0 -2.93742e-05 0
0 -1.33947e-05 0
0 -1.83735e-05 0
0 -2.05639e-05 0
0 -1.91062e-05 0
0 -1.84053e-05 0
0 -6.25793e-05 0
0 -4.49914e-05 0
0 -1.98914e-05 0
0 -1.58922e-05 0
0 -2.367e-05 0
0 -3.81266e-05 0
0 -4.36518e-05 0
0 -2.25472e-05 0
0 -0.000115119 0
0 -3.05886e-05 0
0 -1.32828e-05 0
0 -3.38507e-05 0
0 -1.78391e-05 0
0 -2.88237e-05 0
0 -1.34771e-05 0
0 -2.36876e-05 0
0 -2.06453e-05 0
0 -2.58912e-05 0
0 -2.10097e-05 0
0 -1.7602e-05 0
0 -3.13896e-05 0
0 -1.34386e-05 0
0 -2.38863e-05 0
0 -2.04203e-05 0
0 -1.33426e-05 0
0 -2.13076e-05 0
0 -1.86316e-05 0
0 -3.10974e-05 0
0 -2.56228e-05 0
0 -2.33161e-05 0
0 -1.57181e-05 0
0 -1.87061e-05 0
0 -5.38771e-05 0
0 -1.84308e-05 0
0 -3.08341e-05 0
0 -2.91652e-05 0
0 -1.16203e-05 0
0 -1.85667e-05 0
0 -2.00287e-05 0
0 -2.68375e-05 0
0 -2.37799e-05 0
0 -3.16945e-05 0
0 -3.13676e-05 0
0 -3.15313e-05 0
0 -1.90796e-05 0
0 -1.58134e-05 0
0 -1.83326e-05 0
0 -3.16308e-05 0
0 -2.07128e-05 0
0 -2.91276e-05 0
0 -6.03597e-05 0
0 -2.26581e-05 0
0 -2.35174e-05 0
0 -2.33506e-05 0
0 -2.59482e-05 0
0 -1.63393e-05 0
0 -1.78912e-05 0
0 -2.02658e-05 0
0 -5.62379e-05 0
0 -2.04507e-05 0
0 -2.14176e-05 0
0 -2.38895e-05 0
0 -3.05955e-05 0
0 -3.11287e-05 0
0 -2.01544e-05 0
0 -1.92198e-05 0
0 -2.99909e-05 0
0 -6.32085e-05 0
0 -2.04829e-05 0
0 -2.67435e-05 0
0 -2.11611e-05 0
0 -1.83262e-05 0
0 -1.96474e-05 0
0 -2.0699e-05 0
0 -2.83503e-05 0
0 -2.27807e-05 0
0 -2.35234e-05 0
0 -1.93874e-05 0
0 -6.29086e-05 0
0 -2.12117e-05 0
0 -3.22943e-05 0
0 -2.06229e-05 0
0 -2.61501e-05 0
0 -1.90721e-05 0
0 -2.86319e-05 0
0 -2.53212e-05 0
0 -2.07681e-05 0
0 -2.05553e-05 0
0 -1.88077e-05 0
0 -6.92631e-05 0
0 -2.20924e-05 0
0 -2.02457e-05 0
0 -6.16224e-05 0
0 -2.08117e-05 0
0 -2.85397e-05 0
0 -2.08875e-05 0
0 -6.32617e-05 0
0 -1.39008e-05 0
0 -2.0289e-05 0
0 -6.45558e-05 0
0 -2.47785e-05 0
0 -2.35177e-05 0
0 -7.28089e-06 0
0 -2.18143e-05 0
0 -6.93323e-06 0
0 -6.87344e-06 0
0 -8.76768e-06 0
0 -2.48719e-05 0
0 -2.22231e-05 0
0 -1.31068e-05 0
0 -7.69816e-06 0
0 -2.27889e-05 0
0 -5.95166e-06 0
0 -6.55579e-06 0
0 -6.71305e-06 0
0 -2.46468e-05 0
0 -2.27228e-05 0
0 -7.6878e-06 0
0 -6.67903e-06 0
0 -6.10861e-05 0
0 -6.6189e-06 0
0 -6.52665e-06 0
0 -6.87836e-06 0
0 -1.78856e-05 0
0 -1.87072e-05 0
0 -6.73674e-06 0
0 -6.91401e-06 0
0 -1.82903e-05 0
0 -2.2423e-05 0
0 -6.67521e-06 0
0 -7.02401e-06 0
0 -1.78908e-05 0
0 -5.89658e-06 0
0 -1.98938e-05 0
0 -7.3162e-06 0
0 -5.63509e-06 0
0 -1.76631e-05 0
0 -1.42638e-05 0
0 -2.22707e-05 0
0 -1.77204e-05 0
0 -2.11264e-05 0
0 -1.75686e-05 0
0 -1.76047e-05 0
0 -6.69346e-06 0
0 -2.20467e-05 0
0 -1.42479e-05 0
0 -1.76144e-05 0
0 -6.84615e-06 0
0 -6.12404e-06 0
0 -6.50125e-06 0
0 -1.41879e-05 0
0 -1.37476e-05 0
0 -2.11168e-05 0
0 -1.79377e-05 0
0 -1.37282e-05 0
0 -1.41198e-05 0
0 -2.15061e-05 0
0 -6.84475e-06 0
0 -1.74349e-05 0
0 -1.75758e-05 0
0 -6.41828e-06 0
0 -7.20025e-06 0
0 -2.30432e-05 0
0 -6.96894e-06 0
0 -6.44499e-06 0
0 -6.14414e-06 0
0 -2.14766e-05 0
0 -6.00855e-06 0
0 -5.92427e-06 0
0 -5.81567e-06 0
0 -5.02303e-06 0
0 -5.01945e-06 0
0 -4.85271e-06 0
0 -4.87573e-06 0
0 -4.8684e-06 0
0 -5.22951e-06 0
0 -4.84801e-06 0
0 -4.88396e-06 0
0 -4.77612e-06 0
0 -4.81304e-06 0
0 -4.85251e-06 0
0 -4.8555e-06 0
0 -4.82575e-06 0
0 -4.80313e-06 0
0 -4.86923e-06 0
0 -4.85781e-06 0
0 -4.73027e-06 0
0 -1.08748e-05 0
0 -5.22863e-06 0
0 -5.34413e-06 0
0 -5.26459e-06 0
0 -5.05624e-06 0
0 -4.92238e-06 0
0 -5.43253e-06 0
0 -5.43253e-06 0
0 -5.43253e-06 0
0 -5.43253e-06 0
0 -5.43253e-06 0
0 -5.43253e-06 0
0 -5.40321e-06 0
0 -5.40321e-06 0
0 -7.3113e-06 0
0 -6.98147e-06 0
0 -4.8949e-06 0

