# vtk DataFile Version 4.2
vtk output
ASCII
DATASET UNSTRUCTURED_GRID

POINTS 343 double
0.00134189 0.00420247 -8.22315e-06
0.00259568 0.00499621 0.00216007
0 0.00419538 0.00112517
0.00230219 0.00196618 0.00192867
0.00614679 0.00241793 0.00500003
0.00615745 0.00384629 0.00636604
0.00908215 0.00478336 0.00495539
0.00742328 0.00486492 0.00365329
0.00812913 0.00329624 0.00687594
0.00595321 0.00501091 0.00496804
0.00495591 0.00112624 0.00997494
0.00627032 0.00208949 0.00787329
0.00496335 -1.62217e-06 0.00829133
0.00239612 0.00201499 0.00801941
0.00509 0.0025459 0.00997475
0.00829952 0.00646179 0.00690793
0.00765565 0.00619874 0.00514437
0.00269374 0.00219777 0.00513039
0 0.00143586 0.00417514
0.00190339 0.00347689 0.00402533
0.00813865 0.00320043 0.00312004
0.00920423 0.00221148 0.00502041
0 0.00270918 0.00154168
0.00494721 0.00143634 -2.81901e-05
0.00595798 0.00219711 0.00216719
0.00472607 0.00354297 0.00157735
0.00160023 8.00754e-06 0.00405068
0.0049654 -2.16883e-06 0.00166236
0.00314452 0.00696728 -1.89859e-05
0.00232222 0.00806549 0.00193131
0.00488769 0.00626843 0.00161822
0.00955565 0.00799711 0.00795548
0.00948098 0.00482218 0.00798083
0.0100025 0.00608605 0.00590195
0.011948 0.00882553 0.00413626
0.00905424 0.00764817 0.00491942
0.0102552 0.00998748 0.00411653
0.00954029 0.00798157 0.00196749
0.00420968 0.0030525 0.00693613
0.00527967 0.00367912 0.00829797
0.00462485 0.00161153 0.00594373
0.00598053 0.00768664 0.00764683
0.00237943 0.0080203 0.00797506
0.0033891 0.0100122 0.00710686
0.00468759 0.00841693 0.00593145
0 0.00695361 0.00262895
0.00196891 0.00624978 0.00407612
0 0.0040177 0.00850214
0.00276377 0.00500004 0.00764514
0.00170951 0.00418371 0.00998947
0.00855636 0.00713195 0.00996093
0.0072938 0.00598781 0.00838362
0.00245562 0.00795481 0.00472707
0.00363765 0.00696026 0.00644619
0.00189632 0.00608872 0.00591459
0.0118958 0.00577999 0.00826537
0 0.00718191 0.00711644
0.00189647 0.00578384 -1.17453e-05
0 0.00577432 0.00158701
0.0119181 0.00715616 0.00706331
0.00341127 0.00336386 0.00998233
0.0118412 0.00138971 0.00412004
0.00955459 0.00193788 0.0019314
0.00998444 0.00350154 0.00395044
0.00442951 0.00165893 0.00410406
0.00180944 0.0100105 0.00580377
0.00333029 5.20899e-06 0.00710884
0.00726969 0.00418555 0.0083421
0.0119262 0.00724845 0.004139
0.0101143 -3.70303e-05 0.00412
0.00398599 0.00288453 -2.34974e-05
0.00320522 0.00155002 0.00998314
0.00334447 4.00216e-06 0.0028132
0.00571824 0.00521304 0.00752552
0.00376537 0.00316239 0.00314613
0 0.00849157 0.00581511
0.00579627 0.00368538 0.0037553
0.00183565 0.00271943 -1.15118e-05
0.00692531 0.00833231 0.00996687
0.0071617 0.0100052 0.0084721
0.0050443 0.0100105 0.0082917
0.00479955 0.00851401 0.00997491
0.0119394 0.00846704 0.00575998
0.00376422 0.0068512 0.00312976
0 0.00748929 0.00137438
0.00164556 0.00749901 -1.03425e-05
0 0.00287343 0.00335182
0 0.00580816 0.00831736
0 0.00429792 0.00253898
0.00302842 0.00431038 -1.82218e-05
0.0017116 0.00582869 0.00998951
0.00617909 0.00648769 0.0063681
0.00430031 0.00652884 0.00821109
0.00822896 0.00261718 0.00996254
0.00949486 0.00193602 0.0079922
0.00823451 -2.2122e-05 0.00304085
0.00713087 0.0016571 0.00357637
0.0118639 0.00283398 0.00329578
0 0.00140616 0.00256446
0.00761878 0.00823264 0.00638247
0.00689166 0.00142632 -3.6903e-05
0.00717445 0.00355153 0.00156576
0.00378439 0.0100116 0.00580371
0.0102451 0.00998773 0.00578393
0.00304165 0.00141269 -1.80062e-05
0.00705981 -1.39595e-05 0.00145894
0.00751501 0.00829269 0.0035778
0.0101047 -3.63739e-05 0.00578649
0.00734554 0.00166519 0.0063286
0.00167024 0.00257379 0.00998989
0.00850529 0.00718143 -4.57862e-05
0.00618274 0.00770024 0.00213535
0.00709339 0.00610185 0.00156408
0 0.00686719 0.00578184
0.0118437 0.00135905 0.00250816
0.00211427 0.00362138 0.00639537
0.0119462 0.00846151 0.00256544
0.0100263 0.00617663 0.00408357
0.00717574 0.0100036 0.00145474
0.00822489 -2.15882e-05 0.00688683
0.0118377 0.00139003 0.00576633
0.00996719 0.00355385 0.00601433
0.00178597 8.38467e-06 0.00580454
0 0.0013659 0.00748679
0.00162129 7.48101e-06 0.00751879
0.0119169 0.00684112 0.00572685
0.00696791 0.00849759 -3.8869e-05
0 0.0075208 0.00859127
0.001631 0.00749545 0.00998993
0.00506612 0.0082181 0.00359974
0.0102801 0.00998706 0.00746504
0.0119374 0.00860634 0.00747311
0.00682352 0.00158089 0.00996769
0.00861468 0.00418228 0.00996115
0 0.0057735 0.00666667
0.00164186 0.0100092 0.00751884
0 0.00863025 0.00752641
0.0101489 -3.88106e-05 0.00245869
0.0119248 0.00692717 0.00257094
0.0100886 0.00632898 0.00211176
0.0101215 0.00581054 0.00995565
0.00885104 0.00135337 0.0099599
0.0101393 -3.75307e-05 0.00746518
0.0118324 0.00132022 0.00743463
0 0.00143551 0.00581971
0.00704806 -1.27366e-05 0.00847128
0.00497362 -2.94165e-06 0.00337333
0.00944249 0.00469535 0.00198623
0.0118862 0.0042637 0.0024811
0.00507038 0.0100099 0.00663835
0.00340429 0.0100126 0.00281198
0.00155556 7.41434e-06 0.00240943
0 0.00727418 0.00419576
0.0118989 0.0057448 0.00661294
0.00836086 0.00999798 0.00303759
0.00896519 0.00863298 0.00995975
0 0.00574334 0.00336387
0 0.0043297 0.00416652
0.0081728 0.00578553 0.00996312
0.0118583 0.00298424 0.00686232
0.00498429 -2.45555e-06 0.00663994
0.00297162 0.010011 0.00859457
0.00886704 0.00134264 -4.55353e-05
0.00687956 0.0066753 0.00996729
0.0119194 0.00749567 0.00853903
0.0102628 0.00754192 0.0099551
0.00821066 0.0030119 -4.27739e-05
0.00401743 0.00575928 -2.32795e-05
0.00901122 0.00862586 -4.82238e-05
0.00901079 0.00999357 0.00133991
0.00691091 0.00687531 -3.83206e-05
0.00832247 0.00637168 0.00299043
0.00887887 -2.90026e-05 0.00134399
0.00343179 0.00501332 0.00998197
0.00515301 0.00584814 0.00997436
0.00514063 0.00417944 0.0099747
0.00899583 0.00999449 0.00857512
0.00292136 4.77527e-06 0.00859498
0.0119057 0.00571339 0.00330666
0 0.00302218 0.00691532
0.0118689 0.003984 0.00845059
0.0101085 0.0039962 -5.18468e-05
0.0118649 0.00266815 0.00148347
0 0.00244495 0.00857025
0.00292265 0.00858083 0.00998365
0.00886458 -2.75863e-05 0.00857404
0.0100496 0.0025999 0.00995561
0.0105039 0.00417237 0.00995417
0.00679788 0.0100055 0.0057974
0.00619966 0.00759414 0.00499888
0.00676814 0.0100053 0.00417856
0.00835119 0.00999861 0.00688523
0.00360357 0.00693106 0.00998068
0.00496391 0.00434253 -2.75906e-05
0.00334763 3.58906e-06 0.00438625
0.00372038 3.40143e-06 0.00580525
0.0118871 0.00415996 0.00106618
0.00435869 0.00834965 0.00156398
0.0118837 0.00429626 0.00411106
0.00795144 0.00577467 -4.24244e-05
0.0102906 0.00998657 0.00245458
0 0.00848692 0.00262374
0.00162065 0.0100091 0.00404971
0 0.00885053 0.00419359
0.00503006 0.00886049 -2.882e-05
0.00505071 0.0100093 0.00165921
0.00595488 0.004803 0.00234663
0.00859223 0.00451443 -4.49997e-05
0.00666073 -1.18023e-05 0.00418153
0.00669054 -1.15386e-05 0.00579904
0.00157543 0.0100088 0.00240819
0.010167 0.00241678 -5.16253e-05
0.0118794 0.00448958 0.00716678
0.00852691 0.00999761 0.00495666
0.00680817 0.00336686 0.00996788
0.00290412 4.68621e-06 0.00134044
0.0118454 0.00240412 0.00851921
0.00285603 0.00480413 0.0049834
0.00694227 0.00433342 -3.68898e-05
0.00991492 0.00579464 -5.15887e-05
0.00656694 0.0100068 0.00718677
0.0118798 0.00429712 0.00577928
0.00648414 0.010006 0.00273954
0.00839889 -2.28408e-05 0.00495939
0.00340565 0.0100126 0.00438421
0 0.00452174 0.00721958
0.00539278 0.00723362 0.00997305
0.00646185 -9.52839e-06 0.00718705
0.00429624 0.00508886 0.00357233
0.00510356 0.0100099 0.00497947
0.00501496 -3.13817e-06 0.00498186
0.00437499 0.00523219 0.00614993
0 0.005744 0.00499998
0 0.00433013 0.00583333
0.00596732 0.00575707 -3.26171e-05
0.00595121 0.0063519 0.0035217
0.00637841 -1.03068e-05 0.00274337
0.0119023 0.00571461 0.00494475
0.00440702 0.00642347 0.00481869
0.00682728 0.00500864 0.00996785
0.0119094 0.00574408 0.0015278
0 0.00666667 0
0.0102642 0.00750776 -5.39328e-05
0.00393878 -2.24043e-06 -1.94082e-05
0 0.01 0.00666667
0.00598651 0.0100069 0.00997167
0 0.00288419 0.00499914
0.0119346 0.00746353 0.0013146
0.011925 0.00663861 -6.06986e-05
0 0.005 0.01
0.00593643 0.00288771 -3.2601e-05
0 0.005 0
0.01182 -5.47947e-05 0.00327821
0.0119574 0.00997554 0.00661203
0.00502042 0.00728812 -2.85632e-05
0.0118603 0.00284529 0.00494473
0.00590718 -1.12284e-05 -2.91691e-05
0 0 0.00666667
0.00451715 0.00363013 0.00520102
0.00589239 -8.7562e-06 0.00996955
0.0118129 -5.36634e-05 0.00661393
0 0 0.005
0.0105202 0.00998468 0.00116554
0.0119529 0.00875411 0.00115968
0.0118165 -5.39552e-05 0.00494626
0.0119006 0.00496681 -6.00882e-05
0.00145013 0.00122634 -9.12217e-06
0 0.00122008 0.00122008
0 0.00333333 0.01
0 0.00666667 0.01
0.0105055 0.00876506 -5.55652e-05
0.011965 0.00997484 0.00327485
0.00506171 0.0100096 0.0033706
0.0119028 0.00664052 0.00995066
0 0.00333333 0
0 0.00122008 0.00877992
0.00144375 5.54996e-06 0.00877036
0.00144744 0.00122713 0.00999152
0.0105034 0.00998506 0.00873404
0.00145887 0.00878723 0.00999093
0 0.00877992 0.00877992
0.0119367 0.00875565 0.00872822
0.00800106 0.00999904 -4.46426e-05
0.011843 0.00117087 0.00116262
0.00146248 0.0100075 0.00877193
0.0104845 0.00876587 0.00995487
0.0118785 0.00496935 0.00995063
0 0 0.00333333
0.00787694 -2.31437e-05 -3.8145e-05
0.0103777 -4.21915e-05 0.00117025
0.00143544 5.675e-06 0.00120482
0 0.00877992 0.00122008
0.00146279 0.00878777 -8.9604e-06
0.00145455 0.0100076 0.00120212
0.0118266 0.00117312 0.00872851
0.0103763 0.00118539 0.00995411
0.00785918 -2.0486e-05 0.00996146
0.0103975 0.00118286 -5.19727e-05
0.0103618 -4.01776e-05 0.00873259
0.0118765 0.00329432 -5.94272e-05
0.00399342 0.0100087 0.00998058
0.00295598 0.0100117 0.00133865
0.0079806 0.00999956 0.00996465
0.0118542 0.00329704 0.00995043
0 0.01 0.005
0.00314659 0.00849944 -1.87737e-05
0.0119613 0.00997522 0.00494325
0 0.01 0.00333333
0 0.00166667 0
0.0118234 -5.57176e-05 0.00161059
0 0.00166667 0.01
0 0.00833333 0
0.0119484 0.00830729 -6.20458e-05
0.011809 -5.38664e-05 0.008281
0.0119684 0.00997404 0.00160649
0.0119534 0.00997518 0.00828131
0.00199869 0.0100075 0.009989
0 0.01 0.00833333
0.00999016 0.00998784 -5.33164e-05
0.00985056 -3.96164e-05 -4.77687e-05
0.00983007 -3.70014e-05 0.00995474
0.00996823 0.00998751 0.00995715
0 0 0.00833333
0.0119268 0.0083086 0.0099504
0.00197062 3.19937e-06 -1.06282e-05
0 0 0.00166667
0.00400812 0.0100108 -2.39153e-05
0.0118296 0.00162132 0.00994997
0.0118516 0.00161889 -5.86148e-05
0.0019675 4.75945e-06 0.00998903
0.00200386 0.0100091 -1.2295e-05
0 0.01 0.00166667
0.0119498 0.00997452 0.00995071
0 0 0.01
0.0119714 0.0099738 -6.28278e-05
0.0118048 -5.39767e-05 0.00994845
0 0.01 0.01
0.0118263 -5.70491e-05 -5.69202e-05
0 0.01 0
0 0 0
0.0060061 0.0100064 -3.46991e-05
0.00392815 1.01161e-06 0.00997834
0 0.00833333 0.01

CELLS 343 686
1 0
1 1
1 2
1 3
1 4
1 5
1 6
1 7
1 8
1 9
1 10
1 11
1 12
1 13
1 14
1 15
1 16
1 17
1 18
1 19
1 20
1 21
1 22
1 23
1 24
1 25
1 26
1 27
1 28
1 29
1 30
1 31
1 32
1 33
1 34
1 35
1 36
1 37
1 38
1 39
1 40
1 41
1 42
1 43
1 44
1 45
1 46
1 47
1 48
1 49
1 50
1 51
1 52
1 53
1 54
1 55
1 56
1 57
1 58
1 59
1 60
1 61
1 62
1 63
1 64
1 65
1 66
1 67
1 68
1 69
1 70
1 71
1 72
1 73
1 74
1 75
1 76
1 77
1 78
1 79
1 80
1 81
1 82
1 83
1 84
1 85
1 86
1 87
1 88
1 89
1 90
1 91
1 92
1 93
1 94
1 95
1 96
1 97
1 98
1 99
1 100
1 101
1 102
1 103
1 104
1 105
1 106
1 107
1 108
1 109
1 110
1 111
1 112
1 113
1 114
1 115
1 116
1 117
1 118
1 119
1 120
1 121
1 122
1 123
1 124
1 125
1 126
1 127
1 128
1 129
1 130
1 131
1 132
1 133
1 134
1 135
1 136
1 137
1 138
1 139
1 140
1 141
1 142
1 143
1 144
1 145
1 146
1 147
1 148
1 149
1 150
1 151
1 152
1 153
1 154
1 155
1 156
1 157
1 158
1 159
1 160
1 161
1 162
1 163
1 164
1 165
1 166
1 167
1 168
1 169
1 170
1 171
1 172
1 173
1 174
1 175
1 176
1 177
1 178
1 179
1 180
1 181
1 182
1 183
1 184
1 185
1 186
1 187
1 188
1 189
1 190
1 191
1 192
1 193
1 194
1 195
1 196
1 197
1 198
1 199
1 200
1 201
1 202
1 203
1 204
1 205
1 206
1 207
1 208
1 209
1 210
1 211
1 212
1 213
1 214
1 215
1 216
1 217
1 218
1 219
1 220
1 221
1 222
1 223
1 224
1 225
1 226
1 227
1 228
1 229
1 230
1 231
1 232
1 233
1 234
1 235
1 236
1 237
1 238
1 239
1 240
1 241
1 242
1 243
1 244
1 245
1 246
1 247
1 248
1 249
1 250
1 251
1 252
1 253
1 254
1 255
1 256
1 257
1 258
1 259
1 260
1 261
1 262
1 263
1 264
1 265
1 266
1 267
1 268
1 269
1 270
1 271
1 272
1 273
1 274
1 275
1 276
1 277
1 278
1 279
1 280
1 281
1 282
1 283
1 284
1 285
1 286
1 287
1 288
1 289
1 290
1 291
1 292
1 293
1 294
1 295
1 296
1 297
1 298
1 299
1 300
1 301
1 302
1 303
1 304
1 305
1 306
1 307
1 308
1 309
1 310
1 311
1 312
1 313
1 314
1 315
1 316
1 317
1 318
1 319
1 320
1 321
1 322
1 323
1 324
1 325
1 326
1 327
1 328
1 329
1 330
1 331
1 332
1 333
1 334
1 335
1 336
1 337
1 338
1 339
1 340
1 341
1 342

CELL_TYPES 343
1
1
1
1
1
1
1
1
1
1
1
1
1
1
1
1
1
1
1
1
1
1
1
1
1
1
1
1
1
1
1
1
1
1
1
1
1
1
1
1
1
1
1
1
1
1
1
1
1
1
1
1
1
1
1
1
1
1
1
1
1
1
1
1
1
1
1
1
1
1
1
1
1
1
1
1
1
1
1
1
1
1
1
1
1
1
1
1
1
1
1
1
1
1
1
1
1
1
1
1
1
1
1
1
1
1
1
1
1
1
1
1
1
1
1
1
1
1
1
1
1
1
1
1
1
1
1
1
1
1
1
1
1
1
1
1
1
1
1
1
1
1
1
1
1
1
1
1
1
1
1
1
1
1
1
1
1
1
1
1
1
1
1
1
1
1
1
1
1
1
1
1
1
1
1
1
1
1
1
1
1
1
1
1
1
1
1
1
1
1
1
1
1
1
1
1
1
1
1
1
1
1
1
1
1
1
1
1
1
1
1
1
1
1
1
1
1
1
1
1
1
1
1
1
1
1
1
1
1
1
1
1
1
1
1
1
1
1
1
1
1
1
1
1
1
1
1
1
1
1
1
1
1
1
1
1
1
1
1
1
1
1
1
1
1
1
1
1
1
1
1
1
1
1
1
1
1
1
1
1
1
1
1
1
1
1
1
1
1
1
1
1
1
1
1
1
1
1
1
1
1
1
1
1
1
1
1
1
1
1
1
1
1
1
1
1
1
1
1
1
1
1
1
1
1
1
1
1
1
1
1
1
1
1
1
1
1
1
1
1
1
1
1

POINT_DATA 343
FIELD FieldData 3

ExternalForceID_(#) 1 343 int
0
1
2
3
4
5
6
7
8
9
10
11
12
13
14
15
16
17
18
19
20
21
22
23
24
25
26
27
28
29
30
31
32
33
34
35
36
37
38
39
40
41
42
43
44
45
46
47
48
49
50
51
52
53
54
55
56
57
58
59
60
61
62
63
64
65
66
67
68
69
70
71
72
73
74
75
76
77
78
79
80
81
82
83
84
85
86
87
88
89
90
91
92
93
94
95
96
97
98
99
100
101
102
103
104
105
106
107
108
109
110
111
112
113
114
115
116
117
118
119
120
121
122
123
124
125
126
127
128
129
130
131
132
133
134
135
136
137
138
139
140
141
142
143
144
145
146
147
148
149
150
151
152
153
154
155
156
157
158
159
160
161
162
163
164
165
166
167
168
169
170
171
172
173
174
175
176
177
178
179
180
181
182
183
184
185
186
187
188
189
190
191
192
193
194
195
196
197
198
199
200
201
202
203
204
205
206
207
208
209
210
211
212
213
214
215
216
217
218
219
220
221
222
223
224
225
226
227
228
229
230
231
232
233
234
235
236
237
238
239
240
241
242
243
244
245
246
247
248
249
250
251
252
253
254
255
256
257
258
259
260
261
262
263
264
265
266
267
268
269
270
271
272
273
274
275
276
277
278
279
280
281
282
283
284
285
286
287
288
289
290
291
292
293
294
295
296
297
298
299
300
301
302
303
304
305
306
307
308
309
310
311
312
313
314
315
316
317
318
319
320
321
322
323
324
325
326
327
328
329
330
331
332
333
334
335
336
337
338
339
340
341
342

ExternalForceType_(0/1/2/3/4) 1 343 int
0
0
0
0
0
0
0
0
0
0
0
0
0
0
0
0
0
0
0
0
0
0
0
0
0
0
0
0
0
0
0
0
0
0
0
0
0
0
0
0
0
0
0
0
0
0
0
0
0
0
0
0
0
0
0
0
0
0
0
0
0
0
0
0
0
0
0
0
0
0
0
0
0
0
0
0
0
0
0
0
0
0
0
0
0
0
0
0
0
0
0
0
0
0
0
0
0
0
0
0
0
0
0
0
0
0
0
0
0
0
0
0
0
0
0
0
0
0
0
0
0
0
0
0
0
0
0
0
0
0
0
0
0
0
0
0
0
0
0
0
0
0
0
0
0
0
0
0
0
0
0
0
0
0
0
0
0
0
0
0
0
0
0
0
0
0
0
0
0
0
0
0
0
0
0
0
0
0
0
0
0
0
0
0
0
0
0
0
0
0
0
0
0
0
0
0
0
0
0
0
0
0
0
0
0
0
0
0
0
0
0
0
0
0
0
0
0
0
0
0
0
0
0
0
0
0
0
0
0
0
0
0
0
0
0
0
0
0
0
0
0
0
0
0
0
0
0
0
0
0
0
0
0
0
0
0
0
0
0
0
0
0
0
0
0
0
0
0
0
0
0
0
0
0
0
0
0
0
0
0
0
0
0
0
0
0
0
0
0
0
0
0
0
0
0
0
0
0
0
0
0
0
0
0
0
0
0
0
0
0
0
0
0
0
0
0
0
0
0
0
0
0
0
0
0
0
0
0
0
0
0
0
0
0
0
0
0
0
0
0
0
0
0

ExternalForce_(N) 3 343 double
0 -3.09568e-05 0
0 -0.000138619 0
0 -2.16714e-05 0
0 -0.000168226 0
0 -8.26002e-05 0
0 -8.9203e-05 0
0 -9.74165e-05 0
0 -7.37906e-05 0
0 -6.68156e-05 0
0 -5.47617e-05 0
0 -3.04981e-05 0
0 -0.000105531 0
0 -4.77758e-05 0
0 -0.000161821 0
0 -2.96713e-05 0
0 -7.9067e-05 0
0 -6.57564e-05 0
0 -0.000106704 0
0 -4.11017e-05 0
0 -8.006e-05 0
0 -6.02474e-05 0
0 -0.000115662 0
0 -2.18875e-05 0
0 -4.17098e-05 0
0 -0.000107827 0
0 -7.27379e-05 0
0 -4.13856e-05 0
0 -3.85027e-05 0
0 -3.029e-05 0
0 -0.000128774 0
0 -7.57947e-05 0
0 -0.000162261 0
0 -0.000116775 0
0 -7.15802e-05 0
0 -3.74431e-05 0
0 -0.000108892 0
0 -3.74072e-05 0
0 -0.000136493 0
0 -6.25303e-05 0
0 -7.85756e-05 0
0 -7.52544e-05 0
0 -0.000116589 0
0 -0.000160874 0
0 -2.73339e-05 0
0 -8.7662e-05 0
0 -2.53184e-05 0
0 -7.42972e-05 0
0 -4.15199e-05 0
0 -0.000128792 0
0 -3.72945e-05 0
0 -2.72189e-05 0
0 -7.03157e-05 0
0 -0.000119003 0
0 -5.02041e-05 0
0 -8.04153e-05 0
0 -4.4939e-05 0
0 -2.74192e-05 0
0 -3.19929e-05 0
0 -4.04607e-05 0
0 -2.07889e-05 0
0 -3.28809e-05 0
0 -3.54797e-05 0
0 -0.000153858 0
0 -7.19739e-05 0
0 -8.09026e-05 0
0 -4.90862e-05 0
0 -2.77255e-05 0
0 -7.06591e-05 0
0 -3.20606e-05 0
0 -4.10794e-05 0
0 -1.98932e-05 0
0 -2.37551e-05 0
0 -3.0591e-05 0
0 -5.86107e-05 0
0 -5.75946e-05 0
0 -4.01595e-05 0
0 -5.35099e-05 0
0 -2.24477e-05 0
0 -4.41213e-05 0
0 -4.29866e-05 0
0 -4.42325e-05 0
0 -4.30889e-05 0
0 -4.19155e-05 0
0 -5.21923e-05 0
0 -1.5029e-05 0
0 -2.34331e-05 0
0 -1.9903e-05 0
0 -4.30461e-05 0
0 -3.11931e-05 0
0 -3.08326e-05 0
0 -4.52797e-05 0
0 -5.7648e-05 0
0 -8.02544e-05 0
0 -2.43623e-05 0
0 -0.000150893 0
0 -3.43039e-05 0
0 -7.21258e-05 0
0 -1.97489e-05 0
0 -2.00202e-05 0
0 -7.83017e-05 0
0 -4.32908e-05 0
0 -7.00326e-05 0
0 -1.17841e-05 0
0 -4.93779e-05 0
0 -1.58193e-05 0
0 -4.04762e-05 0
0 -8.57147e-05 0
0 -4.2953e-05 0
0 -7.82027e-05 0
0 -2.09499e-05 0
0 -3.31713e-05 0
0 -9.30599e-05 0
0 -7.26197e-05 0
0 -1.76801e-05 0
0 -2.06228e-05 0
0 -7.8371e-05 0
0 -1.84411e-05 0
0 -7.30662e-05 0
0 -4.11806e-05 0
0 -2.3265e-05 0
0 -4.23503e-05 0
0 -5.94919e-05 0
0 -4.22718e-05 0
0 -2.12723e-05 0
0 -1.86252e-05 0
0 -1.77849e-05 0
0 -3.82356e-05 0
0 -2.39658e-05 0
0 -1.62481e-05 0
0 -7.86148e-05 0
0 -1.61387e-05 0
0 -2.34763e-05 0
0 -2.95637e-05 0
0 -2.93742e-05 0
0 -1.33947e-05 0
0 -1.83735e-05 0
0 -2.05639e-05 0
0 -1.91062e-05 0
0 -1.84053e-05 0
0 -6.25793e-05 0
0 -4.49914e-05 0
0 -1.98914e-05 0
0 -1.58922e-05 0
0 -2.367e-05 0
0 -3.81266e-05 0
0 -4.36518e-05 0
0 -2.25472e-05 0
0 -0.000115119 0
0 -3.05886e-05 0
0 -1.32828e-05 0
0 -3.38507e-05 0
0 -1.78391e-05 0
0 -2.88237e-05 0
0 -1.34771e-05 0
0 -2.36876e-05 0
0 -2.06453e-05 0
0 -2.58912e-05 0
0 -2.10097e-05 0
0 -1.7602e-05 0
0 -3.13896e-05 0
0 -1.34386e-05 0
0 -2.38863e-05 0
0 -2.04203e-05 0
0 -1.33426e-05 0
0 -2.13076e-05 0
0 -1.86316e-05 0
0 -3.10974e-05 0
0 -2.56228e-05 0
0 -2.33161e-05 0
0 -1.57181e-05 0
0 -1.87061e-05 0
0 -5.38771e-05 0
0 -1.84308e-05 0
0 -3.08341e-05 0
0 -2.91652e-05 0
0 -1.16203e-05 0
0 -1.85667e-05 0
0 -2.00287e-05 0
0 -2.68375e-05 0
0 -2.37799e-05 0
0 -3.16945e-05 0
0 -3.13676e-05 0
0 -3.15313e-05 0
0 -1.90796e-05 0
0 -1.58134e-05 0
0 -1.83326e-05 0
0 -3.16308e-05 0
0 -2.07128e-05 0
0 -2.91276e-05 0
0 -6.03597e-05 0
0 -2.26581e-05 0
0 -2.35174e-05 0
0 -2.33506e-05 0
0 -2.59482e-05 0
0 -1.63393e-05 0
0 -1.78912e-05 0
0 -2.02658e-05 0
0 -5.62379e-05 0
0 -2.04507e-05 0
0 -2.14176e-05 0
0 -2.38895e-05 0
0 -3.05955e-05 0
0 -3.11287e-05 0
0 -2.01544e-05 0
0 -1.92198e-05 0
0 -2.99909e-05 0
0 -6.32085e-05 0
0 -2.04829e-05 0
0 -2.67435e-05 0
0 -2.11611e-05 0
0 -1.83262e-05 0
0 -1.96474e-05 0
0 -2.0699e-05 0
0 -2.83503e-05 0
0 -2.27807e-05 0
0 -2.35234e-05 0
0 -1.93874e-05 0
0 -6.29086e-05 0
0 -2.12117e-05 0
0 -3.22943e-05 0
0 -2.06229e-05 0
0 -2.61501e-05 0
0 -1.90721e-05 0
0 -2.86319e-05 0
0 -2.53212e-05 0
0 -2.07681e-05 0
0 -2.05553e-05 0
0 -1.88077e-05 0
0 -6.92631e-05 0
0 -2.20924e-05 0
0 -2.02457e-05 0
0 -6.16224e-05 0
0 -2.08117e-05 0
0 -2.85397e-05 0
0 -2.08875e-05 0
0 -6.32617e-05 0
0 -1.39008e-05 0
0 -2.0289e-05 0
0 -6.45558e-05 0
0 -2.47785e-05 0
0 -2.35177e-05 0
0 -7.28089e-06 0
0 -2.18143e-05 0
0 -6.93323e-06 0
0 -6.87344e-06 0
0 -8.76768e-06 0
0 -2.48719e-05 0
0 -2.22231e-05 0
0 -1.31068e-05 0
0 -7.69816e-06 0
0 -2.27889e-05 0
0 -5.95166e-06 0
0 -6.55579e-06 0
0 -6.71305e-06 0
0 -2.46468e-05 0
0 -2.27228e-05 0
0 -7.6878e-06 0
0 -6.67903e-06 0
0 -6.10861e-05 0
0 -6.6189e-06 0
0 -6.52665e-06 0
0 -6.87836e-06 0
0 -1.78856e-05 0
0 -1.87072e-05 0
0 -6.73674e-06 0
0 -6.91401e-06 0
0 -1.82903e-05 0
0 -2.2423e-05 0
0 -6.67521e-06 0
0 -7.02401e-06 0
0 -1.78908e-05 0
0 -5.89658e-06 0
0 -1.98938e-05 0
0 -7.3162e-06 0
0 -5.63509e-06 0
0 -1.76631e-05 0
0 -1.42638e-05 0
0 -2.22707e-05 0
0 -1.77204e-05 0
0 -2.11264e-05 0
0 -1.75686e-05 0
0 -1.76047e-05 0
0 -6.69346e-06 0
0 -2.20467e-05 0
0 -1.42479e-05 0
0 -1.76144e-05 0
0 -6.84615e-06 0
0 -6.12404e-06 0
0 -6.50125e-06 0
0 -1.41879e-05 0
0 -1.37476e-05 0
0 -2.11168e-05 0
0 -1.79377e-05 0
0 -1.37282e-05 0
0 -1.41198e-05 0
0 -2.15061e-05 0
0 -6.84475e-06 0
0 -1.74349e-05 0
0 -1.75758e-05 0
0 -6.41828e-06 0
0 -7.20025e-06 0
0 -2.30432e-05 0
0 -6.96894e-06 0
0 -6.44499e-06 0
0 -6.14414e-06 0
0 -2.14766e-05 0
0 -6.00855e-06 0
0 -5.92427e-06 0
0 -5.81567e-06 0
0 -5.02303e-06 0
0 -5.01945e-06 0
0 -4.85271e-06 0
0 -4.87573e-06 0
0 -4.8684e-06 0
0 -5.22951e-06 0
0 -4.84801e-06 0
0 -4.88396e-06 0
0 -4.77612e-06 0
0 -4.81304e-06 0
0 -4.85251e-06 0
0 -4.8555e-06 0
0 -4.82575e-06 0
0 -4.80313e-06 0
0 -4.86923e-06 0
0 -4.85781e-06 0
0 -4.73027e-06 0
0 -1.08748e-05 0
0 -5.22863e-06 0
0 -5.34413e-06 0
0 -5.26459e-06 0
0 -5.05624e-06 0
0 -4.92238e-06 0
0 -5.43253e-06 0
0 -5.43253e-06 0
0 -5.43253e-06 0
0 -5.43253e-06 0
0 -5.43253e-06 0
0 -5.43253e-06 0
0 -5.40321e-06 0
0 -5.40321e-06 0
0 -7.3113e-06 0
0 -6.98147e-06 0
0 -4.8949e-06 0

