# vtk DataFile Version 4.2
vtk output
ASCII
DATASET UNSTRUCTURED_GRID

POINTS 343 double
0.00112254 0.00419491 8.81682e-08
0.00217117 0.0049825 0.00217535
0 0.00419538 0.00112517
0.00193011 0.00195444 0.00194215
0.00516957 0.00240674 0.00503217
0.00517231 0.00382991 0.00639745
0.00762282 0.00477515 0.00499874
0.00622478 0.00485021 0.00369169
0.00683639 0.00328838 0.00691379
0.00499121 0.00499241 0.00499975
0.00418047 0.00111805 0.00999903
0.00528108 0.00208013 0.00790395
0.00419034 -7.50827e-06 0.00831709
0.00201244 0.00200247 0.00803324
0.00428628 0.00253279 0.00999906
0.00695682 0.00644653 0.00694671
0.00641396 0.0061822 0.00518292
0.00226064 0.00218461 0.0051461
0 0.00143586 0.00417514
0.00159463 0.00346614 0.00403703
0.0068373 0.00319371 0.00316138
0.00774558 0.00221274 0.00506373
0 0.00270918 0.00154168
0.0041583 0.00142843 1.82688e-07
0.00500789 0.0021877 0.00219797
0.00396257 0.00352662 0.00160312
0.0013454 -6.04862e-07 0.00406002
0.0041834 -7.86539e-06 0.00168827
0.00262634 0.00695161 1.48307e-07
0.00193838 0.00805272 0.00194491
0.0040878 0.00624798 0.00164511
0.00800331 0.00798556 0.0079969
0.00796511 0.00481522 0.00802194
0.00838859 0.00607915 0.00594759
0.00999939 0.00882484 0.00419143
0.00757723 0.00763529 0.00496342
0.00856735 0.0099795 0.00416613
0.00797684 0.00797068 0.00201571
0.00353614 0.00303648 0.00695948
0.00443757 0.0036618 0.0083239
0.00389245 0.00160046 0.00596899
0.00500581 0.00766812 0.00767653
0.00198977 0.00800787 0.00798963
0.00282772 0.00999724 0.00712713
0.00391688 0.0083994 0.00595777
0 0.00695361 0.00262895
0.00164657 0.00623925 0.00408789
0 0.0040177 0.00850214
0.00231516 0.00498569 0.00766149
0.00143338 0.00417447 0.00999994
0.00717531 0.00711772 0.00999748
0.00611848 0.00597048 0.00841709
0.00205201 0.0079414 0.00474184
0.00304391 0.00694285 0.00646768
0.00158701 0.00607834 0.00592601
0.00998946 0.00578302 0.00831401
0 0.00718191 0.00711644
0.00158462 0.00577343 5.0106e-08
0 0.00577432 0.00158701
0.00999426 0.00715673 0.00711347
0.00286761 0.00334926 0.00999964
0.00997032 0.00140835 0.00417355
0.00803636 0.00194246 0.00197869
0.00838949 0.0035016 0.00399786
0.00372587 0.00164794 0.00412831
0.00150947 0.00999968 0.00581501
0.00280969 -3.61837e-06 0.00712769
0.00611004 0.0041712 0.00837558
0.00999318 0.00724877 0.00419374
0.00852867 -2.25927e-05 0.00416701
0.0033417 0.00286962 1.38383e-07
0.0027004 0.00153881 0.00999967
0.00281846 -4.00087e-06 0.00283203
0.00479813 0.00519393 0.00755406
0.00315826 0.00314623 0.00316735
0 0.00849157 0.00581511
0.00486492 0.00366938 0.00378612
0.00153706 0.00270865 3.96199e-08
0.00580018 0.0083157 0.00999806
0.00598532 0.00998905 0.0085046
0.00421445 0.00999395 0.00831716
0.00401819 0.00849821 0.00999881
0.00999876 0.00846616 0.00581246
0.00314759 0.00683349 0.00315087
0 0.00748929 0.00137438
0.00137345 0.00748898 2.10792e-08
0 0.00287343 0.00335182
0 0.00580816 0.00831736
0 0.00429792 0.00253898
0.00253358 0.00429588 1.61731e-07
0.001434 0.00581916 0.00999995
0.00517567 0.00646842 0.00639989
0.00360359 0.0065093 0.00823371
0.00693281 0.00261271 0.00999781
0.00799987 0.00193934 0.0080336
0.00694206 -1.68117e-05 0.00308163
0.00600087 0.00165223 0.00361257
0.00997548 0.00284678 0.00335045
0 0.00140616 0.00256446
0.00637369 0.00821643 0.00642001
0.0057966 0.00142309 3.12503e-07
0.00602212 0.00354076 0.00160309
0.00315737 0.00999643 0.00582508
0.00856277 0.00997968 0.00583122
0.00255399 0.00140298 1.73644e-07
0.00595006 -1.33708e-05 0.00149445
0.00628056 0.00827646 0.00361672
0.0085242 -2.24127e-05 0.0058318
0.00618692 0.00166033 0.00636447
0.0014024 0.00256406 0.01
0.00711118 0.00716744 -3.57186e-07
0.0051653 0.0076821 0.0021687
0.00593641 0.00608359 0.00160166
0 0.00686719 0.00578184
0.00996942 0.00137844 0.0025634
0.00177234 0.00360987 0.00640785
0.00999728 0.00846117 0.00262206
0.00840358 0.0061701 0.00413153
0.0059831 0.00998838 0.00149342
0.0069423 -1.65223e-05 0.00692528
0.00997114 0.00140816 0.00581746
0.00837968 0.00355355 0.00605923
0.00150194 -7.69963e-07 0.00581519
0 0.0013659 0.00748679
0.00136378 -6.45417e-07 0.00752891
0.00999235 0.00684194 0.00577928
0.00581523 0.00848098 -1.98547e-07
0 0.0075208 0.00859127
0.00136527 0.00748643 0.00999988
0.00423118 0.0082002 0.00362811
0.00859641 0.00997955 0.00750964
0.0100002 0.00860496 0.00752314
0.00575561 0.00157545 0.0099983
0.00724607 0.00417323 0.00999762
0 0.0057735 0.00666667
0.00137043 0.00999961 0.00752892
0 0.00863025 0.00752641
0.00855455 -2.30176e-05 0.00250686
0.00999119 0.00692804 0.0026274
0.00845046 0.00632258 0.00216201
0.00850081 0.00580463 0.00999697
0.00746625 0.00135663 0.00999746
0.00855773 -2.26284e-05 0.0075098
0.00997165 0.00133863 0.00748388
0 0.00143551 0.00581971
0.00595267 -1.2906e-05 0.00850452
0.00419334 -7.90771e-06 0.00339994
0.00792011 0.00468991 0.00203386
0.00998065 0.00427189 0.00253768
0.00423193 0.00999373 0.006666
0.00283675 0.00999729 0.00283189
0.00130704 -6.60567e-07 0.00241833
0 0.00727418 0.00419576
0.00998844 0.00574828 0.00666385
0.00697769 0.00998512 0.00308074
0.0075091 0.00862113 0.00999731
0 0.00574334 0.00336387
0 0.0043297 0.00416652
0.00686259 0.00577126 0.0099978
0.00997778 0.00299592 0.00691253
0.00420631 -7.69965e-06 0.00666635
0.00248069 0.00999765 0.00861131
0.00745938 0.00134754 6.10223e-08
0.00577092 0.00665745 0.00999811
0.00999637 0.00749572 0.00858772
0.00860619 0.00753405 0.00999684
0.00689488 0.00300718 1.66343e-07
0.00335888 0.0057404 2.35688e-07
0.00752583 0.00861378 -5.86415e-07
0.00751927 0.00998287 0.00138651
0.00577684 0.0068574 -1.20633e-07
0.00696816 0.00635723 0.00303273
0.00748248 -1.91713e-05 0.00138761
0.00288066 0.00499711 0.00999954
0.00432585 0.00582857 0.00999883
0.00432176 0.00416144 0.0099989
0.00752228 0.00998346 0.00861365
0.00246512 -3.05287e-06 0.0086115
0.00998665 0.00571781 0.00336226
0 0.00302218 0.00691532
0.00998242 0.00399209 0.00849881
0.00848257 0.00399711 -2.78655e-07
0.00997403 0.00268217 0.00154082
0 0.00244495 0.00857025
0.00244624 0.00856817 0.00999945
0.00748563 -1.86669e-05 0.00861354
0.00846664 0.00260337 0.00999698
0.00883616 0.00417279 0.0099968
0.00567575 0.00998968 0.0058324
0.0051851 0.00757573 0.00503182
0.00564752 0.00998962 0.00421455
0.00697784 0.00998546 0.00692493
0.00302096 0.0069133 0.0099993
0.00415712 0.00432458 3.08379e-07
0.00282152 -4.13265e-06 0.00440474
0.0031378 -4.61285e-06 0.0058255
0.00997964 0.00416907 0.00112426
0.00363801 0.00833315 0.00158824
0.00998155 0.00430382 0.00416476
0.00665668 0.00576068 -8.79534e-09
0.00859339 0.00997915 0.00250576
0 0.00848692 0.00262374
0.00135218 0.00999965 0.00405987
0 0.00885053 0.00419359
0.00419487 0.00884426 3.50992e-08
0.00420871 0.00999353 0.00168757
0.00498988 0.00478435 0.00237878
0.00720408 0.00450636 8.3438e-09
0.00561638 -1.22696e-05 0.00421535
0.00564467 -1.22026e-05 0.00583284
0.00131366 0.00999967 0.00241806
0.00854451 0.0024233 -1.80848e-07
0.00998379 0.00449621 0.00721662
0.00712045 0.00998483 0.00499892
0.00573045 0.00335407 0.00999834
0.00244567 -3.24138e-06 0.00135674
0.0099763 0.00241835 0.00856699
0.00239182 0.00478977 0.00499991
0.00581973 0.00431976 2.52817e-07
0.00830509 0.00578888 -4.82251e-07
0.00548499 0.00999043 0.00721937
0.00998233 0.00430441 0.00583093
0.00540736 0.00999022 0.0027751
0.00708447 -1.71156e-05 0.00499963
0.00283927 0.0099973 0.00440431
0 0.00452174 0.00721958
0.00452049 0.00721447 0.00999868
0.00545449 -1.14072e-05 0.00721935
0.00359804 0.00507044 0.00359648
0.00425651 0.00999366 0.00500777
0.00423021 -7.87938e-06 0.00500843
0.00366635 0.00521342 0.00617438
0 0.005744 0.00499998
0 0.00433013 0.00583333
0.00499247 0.00573706 2.34341e-07
0.00498036 0.00633227 0.00355356
0.00537677 -1.15995e-05 0.00277601
0.00998747 0.00571866 0.00499778
0.00368796 0.00640435 0.00484376
0.00573627 0.00499114 0.00999827
0.00998601 0.00574857 0.00158586
0 0.00666667 0
0.00858533 0.00750062 -8.08944e-07
0.00331629 -6.11065e-06 7.8953e-07
0 0.01 0.00666667
0.00500675 0.00999154 0.00999865
0 0.00288419 0.00499914
0.00999278 0.00746359 0.00137313
0.00998899 0.00664088 -1.13284e-06
0 0.005 0.01
0.00498317 0.00287571 2.49353e-07
0 0.005 0
0.00996429 -2.84481e-05 0.00333218
0.0100052 0.00997395 0.00666358
0.0041931 0.00726895 1.10653e-07
0.00997625 0.00285776 0.00499715
0.00497584 -1.0931e-05 7.57481e-07
0 0 0.00666667
0.0037905 0.00361264 0.00522619
0.00497901 -1.04116e-05 0.00999827
0.00996591 -2.81765e-05 0.00666409
0 0 0.005
0.00878395 0.00997821 0.00121891
0.00999786 0.00875383 0.00121868
0.00996507 -2.82654e-05 0.00499816
0.00998241 0.00497379 -8.94845e-07
0.00121556 0.00121925 -6.88926e-09
0 0.00122008 0.00122008
0 0.00333333 0.01
0 0.00666667 0.01
0.00877873 0.00875852 -1.03227e-06
0.0100036 0.00997359 0.00333124
0.00421945 0.00999362 0.00339933
0.00999367 0.0066417 0.00999626
0 0.00333333 0
0 0.00122008 0.00877992
0.00121501 -8.20894e-07 0.00877968
0.00121621 0.00121952 0.0100001
0.00878737 0.00997878 0.008777
0.0012201 0.00877945 0.00999987
0 0.00877992 0.00877992
0.0100015 0.00875455 0.00877634
0.00667134 0.00998575 -7.3495e-07
0.00996803 0.00119204 0.00121944
0.00122107 0.00999945 0.00878008
0.00878335 0.0087593 0.00999679
0.00998705 0.00497471 0.00999629
0 0 0.00333333
0.00663642 -1.62602e-05 6.34571e-07
0.00874494 -2.39883e-05 0.0012201
0.00120598 -8.61499e-07 0.00121208
0 0.00877992 0.00122008
0.00121995 0.0087794 9.86218e-08
0.0012123 0.00999951 0.00121141
0.00997164 0.00119264 0.00877646
0.00875376 0.00119729 0.00999675
0.00664053 -1.57581e-05 0.00999737
0.0087491 0.00119667 -1.09525e-07
0.00874854 -2.3465e-05 0.0087768
0.0099759 0.00330653 -6.99883e-07
0.00333833 0.00999552 0.00999952
0.00246176 0.00999784 0.00135631
0.00667501 0.00998645 0.00999796
0.00998048 0.00330744 0.00999629
0 0.01 0.005
0.00262393 0.0084846 1.50513e-07
0.0100044 0.00997378 0.00499749
0 0.01 0.00333333
0 0.00166667 0
0.00996352 -2.87006e-05 0.00166609
0 0.00166667 0.01
0 0.00833333 0
0.00999566 0.00830724 -1.35938e-06
0.00996673 -2.82374e-05 0.0083299
0.0100029 0.00997338 0.00166503
0.010006 0.00997399 0.00832986
0.00166907 0.00999851 0.00999988
0 0.01 0.00833333
0.00833733 0.00997971 -1.08178e-06
0.00829887 -2.25789e-05 2.01282e-07
0.00830346 -2.20352e-05 0.0099967
0.00834157 0.0099803 0.00999708
0 0 0.00833333
0.0100004 0.0083081 0.00999621
0.00165787 -2.12885e-06 2.50845e-07
0 0 0.00166667
0.00333733 0.00999567 3.12703e-09
0.00997396 0.00163939 0.00999623
0.00996932 0.00163873 -5.60016e-07
0.00165914 -1.74269e-06 0.00999997
0.00166855 0.0099988 5.72161e-08
0 0.01 0.00166667
0.0100069 0.00997402 0.00999628
0 0 0.01
0.0100023 0.0099732 -1.63971e-06
0.00996748 -2.83485e-05 0.00999595
0 0.01 0.01
0.00996279 -2.89065e-05 -3.03723e-07
0 0.01 0
0 0 0
0.00500456 0.00999104 -2.98268e-07
0.00331858 -5.50739e-06 0.00999901
0 0.00833333 0.01

CELLS 343 686
1 0
1 1
1 2
1 3
1 4
1 5
1 6
1 7
1 8
1 9
1 10
1 11
1 12
1 13
1 14
1 15
1 16
1 17
1 18
1 19
1 20
1 21
1 22
1 23
1 24
1 25
1 26
1 27
1 28
1 29
1 30
1 31
1 32
1 33
1 34
1 35
1 36
1 37
1 38
1 39
1 40
1 41
1 42
1 43
1 44
1 45
1 46
1 47
1 48
1 49
1 50
1 51
1 52
1 53
1 54
1 55
1 56
1 57
1 58
1 59
1 60
1 61
1 62
1 63
1 64
1 65
1 66
1 67
1 68
1 69
1 70
1 71
1 72
1 73
1 74
1 75
1 76
1 77
1 78
1 79
1 80
1 81
1 82
1 83
1 84
1 85
1 86
1 87
1 88
1 89
1 90
1 91
1 92
1 93
1 94
1 95
1 96
1 97
1 98
1 99
1 100
1 101
1 102
1 103
1 104
1 105
1 106
1 107
1 108
1 109
1 110
1 111
1 112
1 113
1 114
1 115
1 116
1 117
1 118
1 119
1 120
1 121
1 122
1 123
1 124
1 125
1 126
1 127
1 128
1 129
1 130
1 131
1 132
1 133
1 134
1 135
1 136
1 137
1 138
1 139
1 140
1 141
1 142
1 143
1 144
1 145
1 146
1 147
1 148
1 149
1 150
1 151
1 152
1 153
1 154
1 155
1 156
1 157
1 158
1 159
1 160
1 161
1 162
1 163
1 164
1 165
1 166
1 167
1 168
1 169
1 170
1 171
1 172
1 173
1 174
1 175
1 176
1 177
1 178
1 179
1 180
1 181
1 182
1 183
1 184
1 185
1 186
1 187
1 188
1 189
1 190
1 191
1 192
1 193
1 194
1 195
1 196
1 197
1 198
1 199
1 200
1 201
1 202
1 203
1 204
1 205
1 206
1 207
1 208
1 209
1 210
1 211
1 212
1 213
1 214
1 215
1 216
1 217
1 218
1 219
1 220
1 221
1 222
1 223
1 224
1 225
1 226
1 227
1 228
1 229
1 230
1 231
1 232
1 233
1 234
1 235
1 236
1 237
1 238
1 239
1 240
1 241
1 242
1 243
1 244
1 245
1 246
1 247
1 248
1 249
1 250
1 251
1 252
1 253
1 254
1 255
1 256
1 257
1 258
1 259
1 260
1 261
1 262
1 263
1 264
1 265
1 266
1 267
1 268
1 269
1 270
1 271
1 272
1 273
1 274
1 275
1 276
1 277
1 278
1 279
1 280
1 281
1 282
1 283
1 284
1 285
1 286
1 287
1 288
1 289
1 290
1 291
1 292
1 293
1 294
1 295
1 296
1 297
1 298
1 299
1 300
1 301
1 302
1 303
1 304
1 305
1 306
1 307
1 308
1 309
1 310
1 311
1 312
1 313
1 314
1 315
1 316
1 317
1 318
1 319
1 320
1 321
1 322
1 323
1 324
1 325
1 326
1 327
1 328
1 329
1 330
1 331
1 332
1 333
1 334
1 335
1 336
1 337
1 338
1 339
1 340
1 341
1 342

CELL_TYPES 343
1
1
1
1
1
1
1
1
1
1
1
1
1
1
1
1
1
1
1
1
1
1
1
1
1
1
1
1
1
1
1
1
1
1
1
1
1
1
1
1
1
1
1
1
1
1
1
1
1
1
1
1
1
1
1
1
1
1
1
1
1
1
1
1
1
1
1
1
1
1
1
1
1
1
1
1
1
1
1
1
1
1
1
1
1
1
1
1
1
1
1
1
1
1
1
1
1
1
1
1
1
1
1
1
1
1
1
1
1
1
1
1
1
1
1
1
1
1
1
1
1
1
1
1
1
1
1
1
1
1
1
1
1
1
1
1
1
1
1
1
1
1
1
1
1
1
1
1
1
1
1
1
1
1
1
1
1
1
1
1
1
1
1
1
1
1
1
1
1
1
1
1
1
1
1
1
1
1
1
1
1
1
1
1
1
1
1
1
1
1
1
1
1
1
1
1
1
1
1
1
1
1
1
1
1
1
1
1
1
1
1
1
1
1
1
1
1
1
1
1
1
1
1
1
1
1
1
1
1
1
1
1
1
1
1
1
1
1
1
1
1
1
1
1
1
1
1
1
1
1
1
1
1
1
1
1
1
1
1
1
1
1
1
1
1
1
1
1
1
1
1
1
1
1
1
1
1
1
1
1
1
1
1
1
1
1
1
1
1
1
1
1
1
1
1
1
1
1
1
1
1
1
1
1
1
1
1
1
1
1
1
1
1
1
1
1
1
1
1
1
1
1
1
1
1
1
1
1
1
1
1
1
1
1
1
1
1
1
1
1
1
1
1

POINT_DATA 343
FIELD FieldData 3

ExternalForceID_(#) 1 343 int
0
1
2
3
4
5
6
7
8
9
10
11
12
13
14
15
16
17
18
19
20
21
22
23
24
25
26
27
28
29
30
31
32
33
34
35
36
37
38
39
40
41
42
43
44
45
46
47
48
49
50
51
52
53
54
55
56
57
58
59
60
61
62
63
64
65
66
67
68
69
70
71
72
73
74
75
76
77
78
79
80
81
82
83
84
85
86
87
88
89
90
91
92
93
94
95
96
97
98
99
100
101
102
103
104
105
106
107
108
109
110
111
112
113
114
115
116
117
118
119
120
121
122
123
124
125
126
127
128
129
130
131
132
133
134
135
136
137
138
139
140
141
142
143
144
145
146
147
148
149
150
151
152
153
154
155
156
157
158
159
160
161
162
163
164
165
166
167
168
169
170
171
172
173
174
175
176
177
178
179
180
181
182
183
184
185
186
187
188
189
190
191
192
193
194
195
196
197
198
199
200
201
202
203
204
205
206
207
208
209
210
211
212
213
214
215
216
217
218
219
220
221
222
223
224
225
226
227
228
229
230
231
232
233
234
235
236
237
238
239
240
241
242
243
244
245
246
247
248
249
250
251
252
253
254
255
256
257
258
259
260
261
262
263
264
265
266
267
268
269
270
271
272
273
274
275
276
277
278
279
280
281
282
283
284
285
286
287
288
289
290
291
292
293
294
295
296
297
298
299
300
301
302
303
304
305
306
307
308
309
310
311
312
313
314
315
316
317
318
319
320
321
322
323
324
325
326
327
328
329
330
331
332
333
334
335
336
337
338
339
340
341
342

ExternalForceType_(0/1/2/3/4) 1 343 int
0
0
0
0
0
0
0
0
0
0
0
0
0
0
0
0
0
0
0
0
0
0
0
0
0
0
0
0
0
0
0
0
0
0
0
0
0
0
0
0
0
0
0
0
0
0
0
0
0
0
0
0
0
0
0
0
0
0
0
0
0
0
0
0
0
0
0
0
0
0
0
0
0
0
0
0
0
0
0
0
0
0
0
0
0
0
0
0
0
0
0
0
0
0
0
0
0
0
0
0
0
0
0
0
0
0
0
0
0
0
0
0
0
0
0
0
0
0
0
0
0
0
0
0
0
0
0
0
0
0
0
0
0
0
0
0
0
0
0
0
0
0
0
0
0
0
0
0
0
0
0
0
0
0
0
0
0
0
0
0
0
0
0
0
0
0
0
0
0
0
0
0
0
0
0
0
0
0
0
0
0
0
0
0
0
0
0
0
0
0
0
0
0
0
0
0
0
0
0
0
0
0
0
0
0
0
0
0
0
0
0
0
0
0
0
0
0
0
0
0
0
0
0
0
0
0
0
0
0
0
0
0
0
0
0
0
0
0
0
0
0
0
0
0
0
0
0
0
0
0
0
0
0
0
0
0
0
0
0
0
0
0
0
0
0
0
0
0
0
0
0
0
0
0
0
0
0
0
0
0
0
0
0
0
0
0
0
0
0
0
0
0
0
0
0
0
0
0
0
0
0
0
0
0
0
0
0
0
0
0
0
0
0
0
0
0
0
0
0
0
0
0
0
0
0
0
0
0
0
0
0
0
0
0
0
0
0
0
0
0
0
0
0

ExternalForce_(N) 3 343 double
0 -3.09568e-05 0
0 -0.000138619 0
0 -2.16714e-05 0
0 -0.000168226 0
0 -8.26002e-05 0
0 -8.9203e-05 0
0 -9.74165e-05 0
0 -7.37906e-05 0
0 -6.68156e-05 0
0 -5.47617e-05 0
0 -3.04981e-05 0
0 -0.000105531 0
0 -4.77758e-05 0
0 -0.000161821 0
0 -2.96713e-05 0
0 -7.9067e-05 0
0 -6.57564e-05 0
0 -0.000106704 0
0 -4.11017e-05 0
0 -8.006e-05 0
0 -6.02474e-05 0
0 -0.000115662 0
0 -2.18875e-05 0
0 -4.17098e-05 0
0 -0.000107827 0
0 -7.27379e-05 0
0 -4.13856e-05 0
0 -3.85027e-05 0
0 -3.029e-05 0
0 -0.000128774 0
0 -7.57947e-05 0
0 -0.000162261 0
0 -0.000116775 0
0 -7.15802e-05 0
0 -3.74431e-05 0
0 -0.000108892 0
0 -3.74072e-05 0
0 -0.000136493 0
0 -6.25303e-05 0
0 -7.85756e-05 0
0 -7.52544e-05 0
0 -0.000116589 0
0 -0.000160874 0
0 -2.73339e-05 0
0 -8.7662e-05 0
0 -2.53184e-05 0
0 -7.42972e-05 0
0 -4.15199e-05 0
0 -0.000128792 0
0 -3.72945e-05 0
0 -2.72189e-05 0
0 -7.03157e-05 0
0 -0.000119003 0
0 -5.02041e-05 0
0 -8.04153e-05 0
0 -4.4939e-05 0
0 -2.74192e-05 0
0 -3.19929e-05 0
0 -4.04607e-05 0
0 -2.07889e-05 0
0 -3.28809e-05 0
0 -3.54797e-05 0
0 -0.000153858 0
0 -7.19739e-05 0
0 -8.09026e-05 0
0 -4.90862e-05 0
0 -2.77255e-05 0
0 -7.06591e-05 0
0 -3.20606e-05 0
0 -4.10794e-05 0
0 -1.98932e-05 0
0 -2.37551e-05 0
0 -3.0591e-05 0
0 -5.86107e-05 0
0 -5.75946e-05 0
0 -4.01595e-05 0
0 -5.35099e-05 0
0 -2.24477e-05 0
0 -4.41213e-05 0
0 -4.29866e-05 0
0 -4.42325e-05 0
0 -4.30889e-05 0
0 -4.19155e-05 0
0 -5.21923e-05 0
0 -1.5029e-05 0
0 -2.34331e-05 0
0 -1.9903e-05 0
0 -4.30461e-05 0
0 -3.11931e-05 0
0 -3.08326e-05 0
0 -4.52797e-05 0
0 -5.7648e-05 0
0 -8.02544e-05 0
0 -2.43623e-05 0
0 -0.000150893 0
0 -3.43039e-05 0
0 -7.21258e-05 0
0 -1.97489e-05 0
0 -2.00202e-05 0
0 -7.83017e-05 0
0 -4.32908e-05 0
0 -7.00326e-05 0
0 -1.17841e-05 0
0 -4.93779e-05 0
0 -1.58193e-05 0
0 -4.04762e-05 0
0 -8.57147e-05 0
0 -4.2953e-05 0
0 -7.82027e-05 0
0 -2.09499e-05 0
0 -3.31713e-05 0
0 -9.30599e-05 0
0 -7.26197e-05 0
0 -1.76801e-05 0
0 -2.06228e-05 0
0 -7.8371e-05 0
0 -1.84411e-05 0
0 -7.30662e-05 0
0 -4.11806e-05 0
0 -2.3265e-05 0
0 -4.23503e-05 0
0 -5.94919e-05 0
0 -4.22718e-05 0
0 -2.12723e-05 0
0 -1.86252e-05 0
0 -1.77849e-05 0
0 -3.82356e-05 0
0 -2.39658e-05 0
0 -1.62481e-05 0
0 -7.86148e-05 0
0 -1.61387e-05 0
0 -2.34763e-05 0
0 -2.95637e-05 0
0 -2.93742e-05 0
0 -1.33947e-05 0
0 -1.83735e-05 0
0 -2.05639e-05 0
0 -1.91062e-05 0
0 -1.84053e-05 0
0 -6.25793e-05 0
0 -4.49914e-05 0
0 -1.98914e-05 0
0 -1.58922e-05 0
0 -2.367e-05 0
0 -3.81266e-05 0
0 -4.36518e-05 0
0 -2.25472e-05 0
0 -0.000115119 0
0 -3.05886e-05 0
0 -1.32828e-05 0
0 -3.38507e-05 0
0 -1.78391e-05 0
0 -2.88237e-05 0
0 -1.34771e-05 0
0 -2.36876e-05 0
0 -2.06453e-05 0
0 -2.58912e-05 0
0 -2.10097e-05 0
0 -1.7602e-05 0
0 -3.13896e-05 0
0 -1.34386e-05 0
0 -2.38863e-05 0
0 -2.04203e-05 0
0 -1.33426e-05 0
0 -2.13076e-05 0
0 -1.86316e-05 0
0 -3.10974e-05 0
0 -2.56228e-05 0
0 -2.33161e-05 0
0 -1.57181e-05 0
0 -1.87061e-05 0
0 -5.38771e-05 0
0 -1.84308e-05 0
0 -3.08341e-05 0
0 -2.91652e-05 0
0 -1.16203e-05 0
0 -1.85667e-05 0
0 -2.00287e-05 0
0 -2.68375e-05 0
0 -2.37799e-05 0
0 -3.16945e-05 0
0 -3.13676e-05 0
0 -3.15313e-05 0
0 -1.90796e-05 0
0 -1.58134e-05 0
0 -1.83326e-05 0
0 -3.16308e-05 0
0 -2.07128e-05 0
0 -2.91276e-05 0
0 -6.03597e-05 0
0 -2.26581e-05 0
0 -2.35174e-05 0
0 -2.33506e-05 0
0 -2.59482e-05 0
0 -1.63393e-05 0
0 -1.78912e-05 0
0 -2.02658e-05 0
0 -5.62379e-05 0
0 -2.04507e-05 0
0 -2.14176e-05 0
0 -2.38895e-05 0
0 -3.05955e-05 0
0 -3.11287e-05 0
0 -2.01544e-05 0
0 -1.92198e-05 0
0 -2.99909e-05 0
0 -6.32085e-05 0
0 -2.04829e-05 0
0 -2.67435e-05 0
0 -2.11611e-05 0
0 -1.83262e-05 0
0 -1.96474e-05 0
0 -2.0699e-05 0
0 -2.83503e-05 0
0 -2.27807e-05 0
0 -2.35234e-05 0
0 -1.93874e-05 0
0 -6.29086e-05 0
0 -2.12117e-05 0
0 -3.22943e-05 0
0 -2.06229e-05 0
0 -2.61501e-05 0
0 -1.90721e-05 0
0 -2.86319e-05 0
0 -2.53212e-05 0
0 -2.07681e-05 0
0 -2.05553e-05 0
0 -1.88077e-05 0
0 -6.92631e-05 0
0 -2.20924e-05 0
0 -2.02457e-05 0
0 -6.16224e-05 0
0 -2.08117e-05 0
0 -2.85397e-05 0
0 -2.08875e-05 0
0 -6.32617e-05 0
0 -1.39008e-05 0
0 -2.0289e-05 0
0 -6.45558e-05 0
0 -2.47785e-05 0
0 -2.35177e-05 0
0 -7.28089e-06 0
0 -2.18143e-05 0
0 -6.93323e-06 0
0 -6.87344e-06 0
0 -8.76768e-06 0
0 -2.48719e-05 0
0 -2.22231e-05 0
0 -1.31068e-05 0
0 -7.69816e-06 0
0 -2.27889e-05 0
0 -5.95166e-06 0
0 -6.55579e-06 0
0 -6.71305e-06 0
0 -2.46468e-05 0
0 -2.27228e-05 0
0 -7.6878e-06 0
0 -6.67903e-06 0
0 -6.10861e-05 0
0 -6.6189e-06 0
0 -6.52665e-06 0
0 -6.87836e-06 0
0 -1.78856e-05 0
0 -1.87072e-05 0
0 -6.73674e-06 0
0 -6.91401e-06 0
0 -1.82903e-05 0
0 -2.2423e-05 0
0 -6.67521e-06 0
0 -7.02401e-06 0
0 -1.78908e-05 0
0 -5.89658e-06 0
0 -1.98938e-05 0
0 -7.3162e-06 0
0 -5.63509e-06 0
0 -1.76631e-05 0
0 -1.42638e-05 0
0 -2.22707e-05 0
0 -1.77204e-05 0
0 -2.11264e-05 0
0 -1.75686e-05 0
0 -1.76047e-05 0
0 -6.69346e-06 0
0 -2.20467e-05 0
0 -1.42479e-05 0
0 -1.76144e-05 0
0 -6.84615e-06 0
0 -6.12404e-06 0
0 -6.50125e-06 0
0 -1.41879e-05 0
0 -1.37476e-05 0
0 -2.11168e-05 0
0 -1.79377e-05 0
0 -1.37282e-05 0
0 -1.41198e-05 0
0 -2.15061e-05 0
0 -6.84475e-06 0
0 -1.74349e-05 0
0 -1.75758e-05 0
0 -6.41828e-06 0
0 -7.20025e-06 0
0 -2.30432e-05 0
0 -6.96894e-06 0
0 -6.44499e-06 0
0 -6.14414e-06 0
0 -2.14766e-05 0
0 -6.00855e-06 0
0 -5.92427e-06 0
0 -5.81567e-06 0
0 -5.02303e-06 0
0 -5.01945e-06 0
0 -4.85271e-06 0
0 -4.87573e-06 0
0 -4.8684e-06 0
0 -5.22951e-06 0
0 -4.84801e-06 0
0 -4.88396e-06 0
0 -4.77612e-06 0
0 -4.81304e-06 0
0 -4.85251e-06 0
0 -4.8555e-06 0
0 -4.82575e-06 0
0 -4.80313e-06 0
0 -4.86923e-06 0
0 -4.85781e-06 0
0 -4.73027e-06 0
0 -1.08748e-05 0
0 -5.22863e-06 0
0 -5.34413e-06 0
0 -5.26459e-06 0
0 -5.05624e-06 0
0 -4.92238e-06 0
0 -5.43253e-06 0
0 -5.43253e-06 0
0 -5.43253e-06 0
0 -5.43253e-06 0
0 -5.43253e-06 0
0 -5.43253e-06 0
0 -5.40321e-06 0
0 -5.40321e-06 0
0 -7.3113e-06 0
0 -6.98147e-06 0
0 -4.8949e-06 0

