# vtk DataFile Version 4.2
vtk output
ASCII
DATASET UNSTRUCTURED_GRID

POINTS 343 double
0.0011228 0.00419489 9.48536e-08
0.0021716 0.00498241 0.00217545
0 0.00419538 0.00112517
0.00193024 0.00195436 0.00194223
0.00516897 0.00240601 0.00503295
0.00517161 0.00382925 0.0063983
0.0076229 0.00477374 0.00500057
0.00622542 0.00484928 0.00369287
0.00683516 0.00328717 0.00691533
0.00499133 0.00499182 0.00500048
0.00417838 0.00111747 0.00999974
0.00527937 0.00207932 0.00790494
0.00418845 -8.11296e-06 0.00831776
0.00201195 0.00200239 0.00803335
0.00428445 0.00253227 0.00999982
0.00695659 0.00644539 0.0069483
0.00641441 0.00618122 0.00518419
0.00226044 0.0021845 0.00514623
0 0.00143586 0.00417514
0.00159467 0.00346611 0.00403707
0.00683766 0.0031925 0.00316282
0.00774473 0.00221116 0.00506562
0 0.00270918 0.00154168
0.00415901 0.00142786 7.41512e-07
0.00500819 0.00218696 0.00219883
0.0039633 0.00352623 0.00160368
0.0013452 -6.19674e-07 0.00406007
0.0041833 -8.40533e-06 0.00168889
0.00262758 0.00695148 3.48399e-07
0.001939 0.00805268 0.001945
0.00408907 0.00624766 0.00164569
0.00800313 0.00798403 0.00799904
0.00796377 0.00481369 0.00802405
0.0083887 0.00607748 0.00594981
0.0100014 0.00882258 0.00419436
0.00757836 0.0076339 0.00496521
0.00856972 0.00997776 0.00416838
0.00797947 0.00796916 0.00201768
0.00353553 0.00303617 0.00695986
0.00443641 0.00366133 0.00832466
0.00389162 0.0016 0.0059694
0.00500574 0.00766749 0.00767743
0.00198974 0.00800778 0.00798972
0.0028282 0.00999706 0.00712733
0.00391747 0.00839902 0.0059582
0 0.00695361 0.00262895
0.00164679 0.00623919 0.00408795
0 0.0040177 0.00850214
0.00231496 0.0049856 0.00766163
0.00143306 0.00417442 0.00999998
0.00717406 0.00711647 0.0099993
0.00611758 0.00596959 0.00841845
0.00205232 0.00794136 0.00474193
0.00304404 0.00694268 0.00646792
0.00158703 0.0060783 0.00592607
0.00998832 0.00578074 0.00831709
0 0.00718191 0.00711644
0.00158516 0.00577338 9.19194e-08
0 0.00577432 0.00158701
0.0099942 0.00715447 0.00711653
0.00286647 0.00334905 0.00999998
0.00996954 0.00140593 0.00417649
0.00803684 0.00194077 0.00198068
0.0083896 0.00349987 0.00400003
0.00372547 0.00164752 0.00412868
0.00150976 0.00999967 0.00581506
0.00280868 -3.88468e-06 0.00712791
0.00610859 0.00417028 0.00837692
0.00999458 0.00724653 0.00419668
0.0085274 -2.44946e-05 0.00416926
0.00334263 0.00286935 4.84126e-07
0.00269904 0.00153858 0.00999999
0.00281804 -4.25619e-06 0.00283224
0.00479745 0.00519342 0.00755487
0.00315839 0.003146 0.00316761
0 0.00849157 0.00581511
0.00486509 0.00366879 0.00378683
0.00153737 0.00270862 7.23012e-08
0.00579936 0.00831483 0.00999933
0.00598559 0.00998814 0.00850595
0.00421466 0.0099935 0.00831785
0.00401763 0.00849774 0.00999944
0.0099998 0.0084639 0.00581546
0.00314825 0.00683331 0.00315113
0 0.00748929 0.00137438
0.00137399 0.00748899 2.96207e-08
0 0.00287343 0.00335182
0 0.00580816 0.00831736
0 0.00429792 0.00253898
0.0025345 0.00429574 3.49724e-07
0.00143371 0.00581914 0.00999998
0.00517571 0.0064678 0.00640074
0.00360314 0.00650907 0.0082342
0.00693009 0.00261141 0.00999954
0.0079975 0.00193765 0.00803571
0.00694141 -1.81564e-05 0.00308313
0.00600056 0.00165121 0.00361369
0.00997563 0.00284442 0.00335337
0 0.00140616 0.00256446
0.00637424 0.00821542 0.0064213
0.0057975 0.0014221 1.40954e-06
0.00602309 0.00353981 0.0016043
0.00315812 0.00999615 0.00582538
0.00856433 0.00997794 0.00583351
0.00255448 0.00140275 3.86573e-07
0.00595 -1.44014e-05 0.00149566
0.00628229 0.00827547 0.00361794
0.00852214 -2.4312e-05 0.00583408
0.00618547 0.00165926 0.0063657
0.00140199 0.00256404 0.01
0.00711419 0.00716623 1.27579e-06
0.00516717 0.00768145 0.00216957
0.00593822 0.00608278 0.00160284
0 0.00686719 0.00578184
0.0099694 0.00137602 0.00256631
0.00177218 0.00360982 0.00640793
0.00999987 0.00845891 0.00262499
0.0084046 0.00616841 0.0041337
0.00598612 0.00998745 0.00149463
0.00693995 -1.79031e-05 0.00692684
0.00996956 0.00140574 0.00582044
0.00837879 0.00355182 0.00606146
0.00150162 -8.0866e-07 0.00581524
0 0.0013659 0.00748679
0.0013634 -6.96722e-07 0.00752892
0.00999282 0.00683969 0.00578227
0.00581834 0.00848015 9.49916e-07
0 0.0075208 0.00859127
0.00136506 0.00748638 0.00999993
0.0042324 0.00819976 0.00362858
0.00859716 0.00997779 0.00751203
0.0100005 0.00860271 0.00752622
0.00575284 0.00157447 0.00999956
0.00724378 0.00417193 0.00999947
0 0.0057735 0.00666667
0.00137057 0.00999961 0.00752895
0 0.00863025 0.00752641
0.00855406 -2.49396e-05 0.0025091
0.00999322 0.0069258 0.00263032
0.00845247 0.00632088 0.00216419
0.00849892 0.00580291 0.00999936
0.007463 0.00135508 0.00999942
0.00855487 -2.45725e-05 0.00751212
0.00996924 0.00133619 0.00748691
0 0.00143551 0.00581971
0.00594993 -1.39813e-05 0.00850579
0.00419271 -8.48503e-06 0.00340047
0.00792154 0.00468836 0.00203579
0.00998172 0.00426956 0.00254058
0.00423269 0.00999325 0.00666656
0.00283794 0.00999709 0.0028321
0.00130697 -6.70372e-07 0.00241835
0 0.00727418 0.00419576
0.00998807 0.005746 0.00666687
0.00698032 0.00998389 0.00308226
0.0075083 0.00861971 0.0099993
0 0.00574334 0.00336387
0 0.0043297 0.00416652
0.0068609 0.00577012 0.00999951
0.00997625 0.00299357 0.00691556
0.00420481 -8.30687e-06 0.00666688
0.00248082 0.00999751 0.00861154
0.00746041 0.00134601 1.81551e-06
0.00576966 0.00665666 0.0099994
0.00999573 0.00749346 0.0085908
0.00860492 0.00753229 0.00999929
0.0068964 0.00300593 1.70737e-06
0.0033603 0.0057402 6.12142e-07
0.00752943 0.00861241 1.24376e-06
0.00752272 0.00998147 0.00138834
0.00577942 0.00685661 1.0193e-06
0.00696965 0.00635607 0.00303425
0.00748251 -2.07192e-05 0.0013894
0.00287976 0.00499692 0.0099999
0.00432459 0.00582817 0.00999962
0.00432022 0.00416099 0.00999971
0.0075225 0.00998206 0.00861564
0.00246399 -3.31255e-06 0.0086117
0.00998788 0.00571552 0.00336518
0 0.00302218 0.00691532
0.00998051 0.00398977 0.00850189
0.00848469 0.00399533 1.91332e-06
0.00997497 0.0026798 0.00154368
0 0.00244495 0.00857025
0.00244585 0.00856797 0.00999971
0.00748247 -2.02711e-05 0.00861545
0.00846356 0.00260155 0.00999936
0.00883363 0.00417091 0.00999935
0.00567694 0.00998883 0.00583339
0.00518589 0.00757508 0.00503261
0.00564936 0.00998877 0.00421551
0.00697877 0.00998424 0.00692651
0.00302026 0.00691316 0.0099997
0.00415855 0.00432418 9.32948e-07
0.00282092 -4.42599e-06 0.00440496
0.00313687 -4.94662e-06 0.00582577
0.00998132 0.00416675 0.00112713
0.00363954 0.00833281 0.00158872
0.00998185 0.00430151 0.00416771
0.00665912 0.00575961 1.4438e-06
0.00859655 0.0099774 0.00250802
0 0.00848692 0.00262374
0.0013525 0.00999963 0.00405991
0 0.00885053 0.00419359
0.00419727 0.00884379 6.899e-07
0.0042109 0.00999302 0.00168819
0.00499082 0.00478379 0.00237958
0.00720617 0.00450505 1.67091e-06
0.00561541 -1.32334e-05 0.00421631
0.00564305 -1.31799e-05 0.00583381
0.00131411 0.00999964 0.00241807
0.00854605 0.00242144 2.02538e-06
0.00998268 0.00449391 0.00721967
0.00712226 0.00998356 0.00500051
0.00572825 0.00335321 0.0099996
0.00244558 -3.4153e-06 0.00135692
0.00997377 0.00241596 0.00857006
0.0023919 0.00478966 0.00500007
0.00582148 0.0043189 1.42992e-06
0.00830785 0.00578724 1.65595e-06
0.00548569 0.00998965 0.0072204
0.00998182 0.0043021 0.00583393
0.00540969 0.00998944 0.002776
0.00708296 -1.85115e-05 0.00500122
0.00284022 0.00999711 0.00440449
0 0.00452174 0.00721958
0.00451955 0.00721399 0.0099995
0.00545241 -1.23293e-05 0.00722032
0.00359845 0.00507017 0.00359682
0.00425779 0.00999317 0.00500829
0.00422914 -8.48199e-06 0.00500892
0.00366626 0.00521315 0.00617476
0 0.005744 0.00499998
0 0.00433013 0.00583333
0.00499446 0.00573654 1.13337e-06
0.00498132 0.00633171 0.00355429
0.00537629 -1.24855e-05 0.00277695
0.0099879 0.00571637 0.00500075
0.00368836 0.00640409 0.0048441
0.00573455 0.00499036 0.00999955
0.00998807 0.00574628 0.00158874
0 0.00666667 0
0.00858874 0.00749889 1.45206e-06
0.00331661 -6.56114e-06 1.22638e-06
0 0.01 0.00666667
0.00500637 0.00999085 0.00999967
0 0.00288419 0.00499914
0.00999559 0.00746136 0.00137601
0.00999211 0.00663861 1.76048e-06
0 0.005 0.01
0.00498435 0.00287504 1.09996e-06
0 0.005 0
0.00996338 -3.08896e-05 0.0033351
0.0100064 0.00997171 0.00666661
0.00419514 0.00726856 7.5837e-07
0.00997559 0.00285541 0.00500013
0.00497631 -1.17553e-05 1.63652e-06
0 0 0.00666667
0.0037903 0.00361231 0.00522656
0.00497623 -1.12255e-05 0.00999927
0.0099634 -3.06122e-05 0.00666708
0 0 0.005
0.00878771 0.00997641 0.00122127
0.0100012 0.00875159 0.00122158
0.00996336 -3.06943e-05 0.00500112
0.00998489 0.0049715 1.98405e-06
0.00121572 0.00121919 9.04617e-09
0 0.00122008 0.00122008
0 0.00333333 0.01
0 0.00666667 0.01
0.00878259 0.00875673 1.31823e-06
0.0100064 0.00997136 0.00333417
0.00422117 0.00999311 0.00339981
0.00999203 0.00663944 0.00999938
0 0.00333333 0
0 0.00122008 0.00877992
0.0012146 -8.87254e-07 0.00877972
0.00121582 0.00121948 0.0100001
0.00878752 0.00997694 0.00877956
0.00121998 0.0087794 0.00999991
0 0.00877992 0.00877992
0.0100012 0.00875229 0.00877944
0.00667517 0.00998463 7.52267e-07
0.00996856 0.00118961 0.0012223
0.00122111 0.00999943 0.00878017
0.00878251 0.00875744 0.00999934
0.00998478 0.0049724 0.0099994
0 0 0.00333333
0.00663695 -1.75628e-05 2.11244e-06
0.00874503 -2.6e-05 0.00122243
0.00120598 -8.92975e-07 0.00121216
0 0.00877992 0.00122008
0.00122048 0.00877939 1.23356e-07
0.00121282 0.00999948 0.00121145
0.00996856 0.00119019 0.00877953
0.00875015 0.00119529 0.00999926
0.00663701 -1.70363e-05 0.00999899
0.00875019 0.00119468 2.18488e-06
0.00874507 -2.54971e-05 0.00877928
0.00997777 0.00330418 2.1591e-06
0.00333807 0.00999514 0.01
0.00246307 0.00999768 0.0013565
0.00667467 0.00998528 0.00999965
0.00997759 0.00330511 0.00999939
0 0.01 0.005
0.00262541 0.00848448 3.78869e-07
0.0100064 0.00997154 0.00500045
0 0.01 0.00333333
0 0.00166667 0
0.0099634 -3.11536e-05 0.00166898
0 0.00166667 0.01
0 0.00833333 0
0.00999938 0.00830501 1.52198e-06
0.00996342 -3.06997e-05 0.00833295
0.0100065 0.00997114 0.00166795
0.0100064 0.00997173 0.00833299
0.00166903 0.0099984 0.01
0 0.01 0.00833333
0.00834154 0.00997806 1.10193e-06
0.0082995 -2.4443e-05 2.32357e-06
0.00829952 -2.3916e-05 0.00999903
0.00834116 0.00997859 0.00999946
0 0 0.00833333
0.00999934 0.00830582 0.00999934
0.00165792 -2.25708e-06 3.60914e-07
0 0 0.00166667
0.00333954 0.00999536 4.13494e-07
0.00997046 0.00163695 0.00999933
0.00997056 0.00163631 2.28598e-06
0.00165835 -1.87546e-06 0.0100001
0.00166952 0.00999873 1.64441e-07
0 0.01 0.00166667
0.0100065 0.00997172 0.00999943
0 0 0.01
0.0100066 0.00997098 1.25335e-06
0.00996338 -3.08045e-05 0.00999903
0 0.01 0.01
0.00996341 -3.13914e-05 2.54874e-06
0 0.01 0
0 0 0
0.00500769 0.00999034 5.88053e-07
0.00331663 -5.8943e-06 0.00999948
0 0.00833333 0.01

CELLS 343 686
1 0
1 1
1 2
1 3
1 4
1 5
1 6
1 7
1 8
1 9
1 10
1 11
1 12
1 13
1 14
1 15
1 16
1 17
1 18
1 19
1 20
1 21
1 22
1 23
1 24
1 25
1 26
1 27
1 28
1 29
1 30
1 31
1 32
1 33
1 34
1 35
1 36
1 37
1 38
1 39
1 40
1 41
1 42
1 43
1 44
1 45
1 46
1 47
1 48
1 49
1 50
1 51
1 52
1 53
1 54
1 55
1 56
1 57
1 58
1 59
1 60
1 61
1 62
1 63
1 64
1 65
1 66
1 67
1 68
1 69
1 70
1 71
1 72
1 73
1 74
1 75
1 76
1 77
1 78
1 79
1 80
1 81
1 82
1 83
1 84
1 85
1 86
1 87
1 88
1 89
1 90
1 91
1 92
1 93
1 94
1 95
1 96
1 97
1 98
1 99
1 100
1 101
1 102
1 103
1 104
1 105
1 106
1 107
1 108
1 109
1 110
1 111
1 112
1 113
1 114
1 115
1 116
1 117
1 118
1 119
1 120
1 121
1 122
1 123
1 124
1 125
1 126
1 127
1 128
1 129
1 130
1 131
1 132
1 133
1 134
1 135
1 136
1 137
1 138
1 139
1 140
1 141
1 142
1 143
1 144
1 145
1 146
1 147
1 148
1 149
1 150
1 151
1 152
1 153
1 154
1 155
1 156
1 157
1 158
1 159
1 160
1 161
1 162
1 163
1 164
1 165
1 166
1 167
1 168
1 169
1 170
1 171
1 172
1 173
1 174
1 175
1 176
1 177
1 178
1 179
1 180
1 181
1 182
1 183
1 184
1 185
1 186
1 187
1 188
1 189
1 190
1 191
1 192
1 193
1 194
1 195
1 196
1 197
1 198
1 199
1 200
1 201
1 202
1 203
1 204
1 205
1 206
1 207
1 208
1 209
1 210
1 211
1 212
1 213
1 214
1 215
1 216
1 217
1 218
1 219
1 220
1 221
1 222
1 223
1 224
1 225
1 226
1 227
1 228
1 229
1 230
1 231
1 232
1 233
1 234
1 235
1 236
1 237
1 238
1 239
1 240
1 241
1 242
1 243
1 244
1 245
1 246
1 247
1 248
1 249
1 250
1 251
1 252
1 253
1 254
1 255
1 256
1 257
1 258
1 259
1 260
1 261
1 262
1 263
1 264
1 265
1 266
1 267
1 268
1 269
1 270
1 271
1 272
1 273
1 274
1 275
1 276
1 277
1 278
1 279
1 280
1 281
1 282
1 283
1 284
1 285
1 286
1 287
1 288
1 289
1 290
1 291
1 292
1 293
1 294
1 295
1 296
1 297
1 298
1 299
1 300
1 301
1 302
1 303
1 304
1 305
1 306
1 307
1 308
1 309
1 310
1 311
1 312
1 313
1 314
1 315
1 316
1 317
1 318
1 319
1 320
1 321
1 322
1 323
1 324
1 325
1 326
1 327
1 328
1 329
1 330
1 331
1 332
1 333
1 334
1 335
1 336
1 337
1 338
1 339
1 340
1 341
1 342

CELL_TYPES 343
1
1
1
1
1
1
1
1
1
1
1
1
1
1
1
1
1
1
1
1
1
1
1
1
1
1
1
1
1
1
1
1
1
1
1
1
1
1
1
1
1
1
1
1
1
1
1
1
1
1
1
1
1
1
1
1
1
1
1
1
1
1
1
1
1
1
1
1
1
1
1
1
1
1
1
1
1
1
1
1
1
1
1
1
1
1
1
1
1
1
1
1
1
1
1
1
1
1
1
1
1
1
1
1
1
1
1
1
1
1
1
1
1
1
1
1
1
1
1
1
1
1
1
1
1
1
1
1
1
1
1
1
1
1
1
1
1
1
1
1
1
1
1
1
1
1
1
1
1
1
1
1
1
1
1
1
1
1
1
1
1
1
1
1
1
1
1
1
1
1
1
1
1
1
1
1
1
1
1
1
1
1
1
1
1
1
1
1
1
1
1
1
1
1
1
1
1
1
1
1
1
1
1
1
1
1
1
1
1
1
1
1
1
1
1
1
1
1
1
1
1
1
1
1
1
1
1
1
1
1
1
1
1
1
1
1
1
1
1
1
1
1
1
1
1
1
1
1
1
1
1
1
1
1
1
1
1
1
1
1
1
1
1
1
1
1
1
1
1
1
1
1
1
1
1
1
1
1
1
1
1
1
1
1
1
1
1
1
1
1
1
1
1
1
1
1
1
1
1
1
1
1
1
1
1
1
1
1
1
1
1
1
1
1
1
1
1
1
1
1
1
1
1
1
1
1
1
1
1
1
1
1
1
1
1
1
1
1
1
1
1
1
1

POINT_DATA 343
FIELD FieldData 3

ExternalForceID_(#) 1 343 int
0
1
2
3
4
5
6
7
8
9
10
11
12
13
14
15
16
17
18
19
20
21
22
23
24
25
26
27
28
29
30
31
32
33
34
35
36
37
38
39
40
41
42
43
44
45
46
47
48
49
50
51
52
53
54
55
56
57
58
59
60
61
62
63
64
65
66
67
68
69
70
71
72
73
74
75
76
77
78
79
80
81
82
83
84
85
86
87
88
89
90
91
92
93
94
95
96
97
98
99
100
101
102
103
104
105
106
107
108
109
110
111
112
113
114
115
116
117
118
119
120
121
122
123
124
125
126
127
128
129
130
131
132
133
134
135
136
137
138
139
140
141
142
143
144
145
146
147
148
149
150
151
152
153
154
155
156
157
158
159
160
161
162
163
164
165
166
167
168
169
170
171
172
173
174
175
176
177
178
179
180
181
182
183
184
185
186
187
188
189
190
191
192
193
194
195
196
197
198
199
200
201
202
203
204
205
206
207
208
209
210
211
212
213
214
215
216
217
218
219
220
221
222
223
224
225
226
227
228
229
230
231
232
233
234
235
236
237
238
239
240
241
242
243
244
245
246
247
248
249
250
251
252
253
254
255
256
257
258
259
260
261
262
263
264
265
266
267
268
269
270
271
272
273
274
275
276
277
278
279
280
281
282
283
284
285
286
287
288
289
290
291
292
293
294
295
296
297
298
299
300
301
302
303
304
305
306
307
308
309
310
311
312
313
314
315
316
317
318
319
320
321
322
323
324
325
326
327
328
329
330
331
332
333
334
335
336
337
338
339
340
341
342

ExternalForceType_(0/1/2/3/4) 1 343 int
0
0
0
0
0
0
0
0
0
0
0
0
0
0
0
0
0
0
0
0
0
0
0
0
0
0
0
0
0
0
0
0
0
0
0
0
0
0
0
0
0
0
0
0
0
0
0
0
0
0
0
0
0
0
0
0
0
0
0
0
0
0
0
0
0
0
0
0
0
0
0
0
0
0
0
0
0
0
0
0
0
0
0
0
0
0
0
0
0
0
0
0
0
0
0
0
0
0
0
0
0
0
0
0
0
0
0
0
0
0
0
0
0
0
0
0
0
0
0
0
0
0
0
0
0
0
0
0
0
0
0
0
0
0
0
0
0
0
0
0
0
0
0
0
0
0
0
0
0
0
0
0
0
0
0
0
0
0
0
0
0
0
0
0
0
0
0
0
0
0
0
0
0
0
0
0
0
0
0
0
0
0
0
0
0
0
0
0
0
0
0
0
0
0
0
0
0
0
0
0
0
0
0
0
0
0
0
0
0
0
0
0
0
0
0
0
0
0
0
0
0
0
0
0
0
0
0
0
0
0
0
0
0
0
0
0
0
0
0
0
0
0
0
0
0
0
0
0
0
0
0
0
0
0
0
0
0
0
0
0
0
0
0
0
0
0
0
0
0
0
0
0
0
0
0
0
0
0
0
0
0
0
0
0
0
0
0
0
0
0
0
0
0
0
0
0
0
0
0
0
0
0
0
0
0
0
0
0
0
0
0
0
0
0
0
0
0
0
0
0
0
0
0
0
0
0
0
0
0
0
0
0
0
0
0
0
0
0
0
0
0
0
0

ExternalForce_(N) 3 343 double
0 -3.09568e-05 0
0 -0.000138619 0
0 -2.16714e-05 0
0 -0.000168226 0
0 -8.26002e-05 0
0 -8.9203e-05 0
0 -9.74165e-05 0
0 -7.37906e-05 0
0 -6.68156e-05 0
0 -5.47617e-05 0
0 -3.04981e-05 0
0 -0.000105531 0
0 -4.77758e-05 0
0 -0.000161821 0
0 -2.96713e-05 0
0 -7.9067e-05 0
0 -6.57564e-05 0
0 -0.000106704 0
0 -4.11017e-05 0
0 -8.006e-05 0
0 -6.02474e-05 0
0 -0.000115662 0
0 -2.18875e-05 0
0 -4.17098e-05 0
0 -0.000107827 0
0 -7.27379e-05 0
0 -4.13856e-05 0
0 -3.85027e-05 0
0 -3.029e-05 0
0 -0.000128774 0
0 -7.57947e-05 0
0 -0.000162261 0
0 -0.000116775 0
0 -7.15802e-05 0
0 -3.74431e-05 0
0 -0.000108892 0
0 -3.74072e-05 0
0 -0.000136493 0
0 -6.25303e-05 0
0 -7.85756e-05 0
0 -7.52544e-05 0
0 -0.000116589 0
0 -0.000160874 0
0 -2.73339e-05 0
0 -8.7662e-05 0
0 -2.53184e-05 0
0 -7.42972e-05 0
0 -4.15199e-05 0
0 -0.000128792 0
0 -3.72945e-05 0
0 -2.72189e-05 0
0 -7.03157e-05 0
0 -0.000119003 0
0 -5.02041e-05 0
0 -8.04153e-05 0
0 -4.4939e-05 0
0 -2.74192e-05 0
0 -3.19929e-05 0
0 -4.04607e-05 0
0 -2.07889e-05 0
0 -3.28809e-05 0
0 -3.54797e-05 0
0 -0.000153858 0
0 -7.19739e-05 0
0 -8.09026e-05 0
0 -4.90862e-05 0
0 -2.77255e-05 0
0 -7.06591e-05 0
0 -3.20606e-05 0
0 -4.10794e-05 0
0 -1.98932e-05 0
0 -2.37551e-05 0
0 -3.0591e-05 0
0 -5.86107e-05 0
0 -5.75946e-05 0
0 -4.01595e-05 0
0 -5.35099e-05 0
0 -2.24477e-05 0
0 -4.41213e-05 0
0 -4.29866e-05 0
0 -4.42325e-05 0
0 -4.30889e-05 0
0 -4.19155e-05 0
0 -5.21923e-05 0
0 -1.5029e-05 0
0 -2.34331e-05 0
0 -1.9903e-05 0
0 -4.30461e-05 0
0 -3.11931e-05 0
0 -3.08326e-05 0
0 -4.52797e-05 0
0 -5.7648e-05 0
0 -8.02544e-05 0
0 -2.43623e-05 0
0 -0.000150893 0
0 -3.43039e-05 0
0 -7.21258e-05 0
0 -1.97489e-05 0
0 -2.00202e-05 0
0 -7.83017e-05 0
0 -4.32908e-05 0
0 -7.00326e-05 0
0 -1.17841e-05 0
0 -4.93779e-05 0
0 -1.58193e-05 0
0 -4.04762e-05 0
0 -8.57147e-05 0
0 -4.2953e-05 0
0 -7.82027e-05 0
0 -2.09499e-05 0
0 -3.31713e-05 0
0 -9.30599e-05 0
0 -7.26197e-05 0
0 -1.76801e-05 0
0 -2.06228e-05 0
0 -7.8371e-05 0
0 -1.84411e-05 0
0 -7.30662e-05 0
0 -4.11806e-05 0
0 -2.3265e-05 0
0 -4.23503e-05 0
0 -5.94919e-05 0
0 -4.22718e-05 0
0 -2.12723e-05 0
0 -1.86252e-05 0
0 -1.77849e-05 0
0 -3.82356e-05 0
0 -2.39658e-05 0
0 -1.62481e-05 0
0 -7.86148e-05 0
0 -1.61387e-05 0
0 -2.34763e-05 0
0 -2.95637e-05 0
0 -2.93742e-05 0
0 -1.33947e-05 0
0 -1.83735e-05 0
0 -2.05639e-05 0
0 -1.91062e-05 0
0 -1.84053e-05 0
0 -6.25793e-05 0
0 -4.49914e-05 0
0 -1.98914e-05 0
0 -1.58922e-05 0
0 -2.367e-05 0
0 -3.81266e-05 0
0 -4.36518e-05 0
0 -2.25472e-05 0
0 -0.000115119 0
0 -3.05886e-05 0
0 -1.32828e-05 0
0 -3.38507e-05 0
0 -1.78391e-05 0
0 -2.88237e-05 0
0 -1.34771e-05 0
0 -2.36876e-05 0
0 -2.06453e-05 0
0 -2.58912e-05 0
0 -2.10097e-05 0
0 -1.7602e-05 0
0 -3.13896e-05 0
0 -1.34386e-05 0
0 -2.38863e-05 0
0 -2.04203e-05 0
0 -1.33426e-05 0
0 -2.13076e-05 0
0 -1.86316e-05 0
0 -3.10974e-05 0
0 -2.56228e-05 0
0 -2.33161e-05 0
0 -1.57181e-05 0
0 -1.87061e-05 0
0 -5.38771e-05 0
0 -1.84308e-05 0
0 -3.08341e-05 0
0 -2.91652e-05 0
0 -1.16203e-05 0
0 -1.85667e-05 0
0 -2.00287e-05 0
0 -2.68375e-05 0
0 -2.37799e-05 0
0 -3.16945e-05 0
0 -3.13676e-05 0
0 -3.15313e-05 0
0 -1.90796e-05 0
0 -1.58134e-05 0
0 -1.83326e-05 0
0 -3.16308e-05 0
0 -2.07128e-05 0
0 -2.91276e-05 0
0 -6.03597e-05 0
0 -2.26581e-05 0
0 -2.35174e-05 0
0 -2.33506e-05 0
0 -2.59482e-05 0
0 -1.63393e-05 0
0 -1.78912e-05 0
0 -2.02658e-05 0
0 -5.62379e-05 0
0 -2.04507e-05 0
0 -2.14176e-05 0
0 -2.38895e-05 0
0 -3.05955e-05 0
0 -3.11287e-05 0
0 -2.01544e-05 0
0 -1.92198e-05 0
0 -2.99909e-05 0
0 -6.32085e-05 0
0 -2.04829e-05 0
0 -2.67435e-05 0
0 -2.11611e-05 0
0 -1.83262e-05 0
0 -1.96474e-05 0
0 -2.0699e-05 0
0 -2.83503e-05 0
0 -2.27807e-05 0
0 -2.35234e-05 0
0 -1.93874e-05 0
0 -6.29086e-05 0
0 -2.12117e-05 0
0 -3.22943e-05 0
0 -2.06229e-05 0
0 -2.61501e-05 0
0 -1.90721e-05 0
0 -2.86319e-05 0
0 -2.53212e-05 0
0 -2.07681e-05 0
0 -2.05553e-05 0
0 -1.88077e-05 0
0 -6.92631e-05 0
0 -2.20924e-05 0
0 -2.02457e-05 0
0 -6.16224e-05 0
0 -2.08117e-05 0
0 -2.85397e-05 0
0 -2.08875e-05 0
0 -6.32617e-05 0
0 -1.39008e-05 0
0 -2.0289e-05 0
0 -6.45558e-05 0
0 -2.47785e-05 0
0 -2.35177e-05 0
0 -7.28089e-06 0
0 -2.18143e-05 0
0 -6.93323e-06 0
0 -6.87344e-06 0
0 -8.76768e-06 0
0 -2.48719e-05 0
0 -2.22231e-05 0
0 -1.31068e-05 0
0 -7.69816e-06 0
0 -2.27889e-05 0
0 -5.95166e-06 0
0 -6.55579e-06 0
0 -6.71305e-06 0
0 -2.46468e-05 0
0 -2.27228e-05 0
0 -7.6878e-06 0
0 -6.67903e-06 0
0 -6.10861e-05 0
0 -6.6189e-06 0
0 -6.52665e-06 0
0 -6.87836e-06 0
0 -1.78856e-05 0
0 -1.87072e-05 0
0 -6.73674e-06 0
0 -6.91401e-06 0
0 -1.82903e-05 0
0 -2.2423e-05 0
0 -6.67521e-06 0
0 -7.02401e-06 0
0 -1.78908e-05 0
0 -5.89658e-06 0
0 -1.98938e-05 0
0 -7.3162e-06 0
0 -5.63509e-06 0
0 -1.76631e-05 0
0 -1.42638e-05 0
0 -2.22707e-05 0
0 -1.77204e-05 0
0 -2.11264e-05 0
0 -1.75686e-05 0
0 -1.76047e-05 0
0 -6.69346e-06 0
0 -2.20467e-05 0
0 -1.42479e-05 0
0 -1.76144e-05 0
0 -6.84615e-06 0
0 -6.12404e-06 0
0 -6.50125e-06 0
0 -1.41879e-05 0
0 -1.37476e-05 0
0 -2.11168e-05 0
0 -1.79377e-05 0
0 -1.37282e-05 0
0 -1.41198e-05 0
0 -2.15061e-05 0
0 -6.84475e-06 0
0 -1.74349e-05 0
0 -1.75758e-05 0
0 -6.41828e-06 0
0 -7.20025e-06 0
0 -2.30432e-05 0
0 -6.96894e-06 0
0 -6.44499e-06 0
0 -6.14414e-06 0
0 -2.14766e-05 0
0 -6.00855e-06 0
0 -5.92427e-06 0
0 -5.81567e-06 0
0 -5.02303e-06 0
0 -5.01945e-06 0
0 -4.85271e-06 0
0 -4.87573e-06 0
0 -4.8684e-06 0
0 -5.22951e-06 0
0 -4.84801e-06 0
0 -4.88396e-06 0
0 -4.77612e-06 0
0 -4.81304e-06 0
0 -4.85251e-06 0
0 -4.8555e-06 0
0 -4.82575e-06 0
0 -4.80313e-06 0
0 -4.86923e-06 0
0 -4.85781e-06 0
0 -4.73027e-06 0
0 -1.08748e-05 0
0 -5.22863e-06 0
0 -5.34413e-06 0
0 -5.26459e-06 0
0 -5.05624e-06 0
0 -4.92238e-06 0
0 -5.43253e-06 0
0 -5.43253e-06 0
0 -5.43253e-06 0
0 -5.43253e-06 0
0 -5.43253e-06 0
0 -5.43253e-06 0
0 -5.40321e-06 0
0 -5.40321e-06 0
0 -7.3113e-06 0
0 -6.98147e-06 0
0 -4.8949e-06 0

