# vtk DataFile Version 4.2
vtk output
ASCII
DATASET UNSTRUCTURED_GRID

POINTS 343 double
0.0014388 0.00420704 -1.30285e-05
0.00278408 0.00500504 0.00215076
0 0.00419538 0.00112517
0.00247278 0.00197449 0.00192037
0.0065839 0.00244133 0.00497565
0.00659225 0.00387035 0.00634838
0.00967566 0.00482713 0.00491534
0.00791994 0.00489765 0.0036141
0.00868306 0.00333178 0.00685452
0.00636816 0.00503475 0.00494436
0.00531365 0.00114615 0.00996816
0.00671876 0.00211443 0.00786047
0.00532734 1.74984e-05 0.00828128
0.00257666 0.00202297 0.0080111
0.00545328 0.00256474 0.00996757
0.00884464 0.00650349 0.00688689
0.00816292 0.00623524 0.00511331
0.00289429 0.00220666 0.00512126
0 0.00143586 0.00417514
0.00204463 0.00348291 0.00401913
0.00868091 0.00323572 0.00307188
0.00981928 0.0022524 0.00497996
0 0.00270918 0.00154168
0.0052839 0.00145637 -6.11817e-05
0.00637107 0.00222121 0.00213077
0.00505222 0.00356064 0.00154938
0.00172215 1.35452e-05 0.00404549
0.0053172 1.64532e-05 0.00163302
0.00335484 0.00697816 -3.6646e-05
0.00248811 0.00807286 0.00192271
0.00521737 0.00628677 0.00158919
0.010157 0.00805583 0.00793761
0.010102 0.00486954 0.00796377
0.0106337 0.00614153 0.00586454
0.0126329 0.00891209 0.00407284
0.00962455 0.00770132 0.00487914
0.0108585 0.0100686 0.00406312
0.0101175 0.00804127 0.00190093
0.00451674 0.00306764 0.00692289
0.00565602 0.00369838 0.00828714
0.00496606 0.00162859 0.0059285
0.00638558 0.00771417 0.00763275
0.00255465 0.0080275 0.00796721
0.00362212 0.0100289 0.00709576
0.0050106 0.00843807 0.00591543
0 0.00695361 0.00262895
0.00211288 0.00625634 0.00406912
0 0.0040177 0.00850214
0.00296766 0.00500933 0.00763596
0.00183663 0.00418942 0.00998419
0.00910804 0.00717927 0.00995473
0.00778456 0.00602138 0.00837162
0.0026343 0.00796203 0.00471843
0.00389904 0.00697187 0.00643297
0.00203611 0.00609483 0.00590824
0.0126168 0.00585034 0.00824132
0 0.00718191 0.00711644
0.00203047 0.00579028 -1.94845e-05
0 0.00577432 0.00158701
0.0126263 0.00723407 0.00702909
0.00365693 0.00337554 0.00997637
0.0125756 0.00144623 0.00405626
0.0101754 0.00198044 0.00186325
0.0106258 0.00355017 0.00389608
0.00475482 0.00167523 0.00408705
0.00194026 0.0100172 0.00579768
0.00358233 1.71815e-05 0.00709784
0.00776923 0.00421626 0.00832956
0.0126248 0.00732977 0.00407599
0.0107822 3.20109e-06 0.00406629
0.0042562 0.00289915 -4.80592e-05
0.00343999 0.00156156 0.00997765
0.00359374 1.562e-05 0.00280042
0.0061192 0.00523492 0.0075124
0.00403824 0.00317564 0.00313216
0 0.00849157 0.00581511
0.00620203 0.00370773 0.00372822
0.00196802 0.00272597 -1.87979e-05
0.00737717 0.00836922 0.00996225
0.00761644 0.0100514 0.00846102
0.00537936 0.0100381 0.00828088
0.00512421 0.00853592 0.00996956
0.0126338 0.00855106 0.00571324
0.00403023 0.00686376 0.00311536
0 0.00748929 0.00137438
0.0017616 0.00750387 -1.64006e-05
0 0.00287343 0.00335182
0 0.00580816 0.00831736
0 0.00429792 0.00253898
0.00323496 0.00432133 -3.49938e-05
0.00183864 0.00583383 0.0099843
0.00660231 0.00651407 0.0063493
0.00460474 0.00654357 0.0082016
0.0087892 0.00265196 0.0099547
0.0101334 0.00197778 0.00797485
0.00879559 1.07334e-05 0.00299054
0.00762417 0.00168582 0.00353761
0.0125866 0.00289401 0.00322342
0 0.00140616 0.00256446
0.00811371 0.0082746 0.00636003
0.00734953 0.00145489 -8.93095e-05
0.00765114 0.00358187 0.00151612
0.00404252 0.0100311 0.00579104
0.0108549 0.0100683 0.00574536
0.00325346 0.00142409 -3.51994e-05
0.00754239 1.2703e-05 0.00140973
0.00799356 0.00833464 0.00353804
0.0107784 3.69396e-06 0.00574914
0.00786091 0.0016949 0.00630716
0.00179555 0.00257926 0.00998484
0.00902152 0.00722945 -0.000113675
0.0065847 0.00773003 0.00209765
0.00755173 0.0061343 0.00151519
0 0.00686719 0.00578184
0.0125699 0.00141551 0.0024294
0.00227194 0.00362845 0.00638816
0.0126259 0.00854665 0.00248724
0.0106523 0.00623229 0.00403075
0.00761015 0.0100524 0.00140512
0.00879792 1.02923e-05 0.00686687
0.0125781 0.00144691 0.00572127
0.0106142 0.00360143 0.00597916
0.00192153 1.4766e-05 0.00579874
0 0.0013659 0.00748679
0.00174488 1.31458e-05 0.00751313
0.0126249 0.00691896 0.0056789
0.00739297 0.0085368 -9.3361e-05
0 0.0075208 0.00859127
0.0017518 0.00749978 0.00998511
0.00540894 0.00824153 0.00357765
0.0108953 0.0100674 0.00744119
0.0126342 0.00869098 0.00744291
0.00730455 0.00160866 0.00996149
0.00918985 0.00422123 0.00995358
0 0.0057735 0.00666667
0.0017614 0.0100154 0.00751291
0 0.00863025 0.00752641
0.0108102 2.48505e-06 0.00239031
0.0126179 0.00700728 0.00249309
0.0107065 0.0063875 0.0020418
0.0107683 0.00586598 0.00994786
0.0094527 0.00139271 0.00995252
0.0108181 3.51137e-06 0.00744248
0.0125766 0.00137667 0.00740475
0 0.00143551 0.00581971
0.00755122 1.39127e-05 0.00846076
0.00533573 1.52736e-05 0.0033497
0.0100408 0.00474341 0.00191989
0.0125964 0.0043279 0.00240055
0.00540684 0.0100394 0.00662407
0.00363324 0.0100301 0.00279872
0.00167321 1.25433e-05 0.00240459
0 0.00727418 0.00419576
0.0126167 0.00581398 0.00657492
0.00886453 0.0100587 0.00298799
0.00952809 0.00868878 0.00995278
0 0.00574334 0.00336387
0 0.0043297 0.00416652
0.00871243 0.00582434 0.00995677
0.0125932 0.00304318 0.0068276
0.005353 1.60951e-05 0.00662654
0.00317727 0.0100258 0.00858711
0.00943784 0.00138178 -0.000116895
0.00733938 0.00670679 0.00996168
0.0126275 0.00757393 0.00851745
0.0109025 0.00760513 0.00994758
0.00873869 0.00304749 -0.000107724
0.0042842 0.00577342 -4.84411e-05
0.00954235 0.00868422 -0.000120678
0.00953766 0.0100623 0.00127486
0.0073437 0.00690873 -9.19871e-05
0.00885385 0.0064148 0.0029404
0.00946654 7.34815e-06 0.00127816
0.0036766 0.00502453 0.00997606
0.00551186 0.00586628 0.00996868
0.00550304 0.00419748 0.00996813
0.00954918 0.0100599 0.00856203
0.00314247 1.50946e-05 0.00858711
0.0126122 0.00578187 0.00323442
0 0.00302218 0.00691532
0.0126016 0.00404525 0.00842806
0.0107278 0.00404685 -0.00013661
0.0125784 0.00272844 0.00139434
0 0.00244495 0.00857025
0.00312739 0.00859226 0.00997881
0.00947516 8.67015e-06 0.00856198
0.0107124 0.00264572 0.00994779
0.0111789 0.00422465 0.00994594
0.0072346 0.0100498 0.00577618
0.00661612 0.00762321 0.00497508
0.00719786 0.01005 0.00414748
0.00886934 0.0100576 0.00686483
0.00385721 0.00694194 0.00997536
0.00529312 0.00436134 -6.22037e-05
0.00359912 1.62416e-05 0.00437426
0.00400072 1.70465e-05 0.00579281
0.012589 0.00422439 0.000973553
0.00464746 0.00836917 0.00153931
0.0126023 0.00436086 0.00404847
0.00844897 0.00581334 -0.000105859
0.0108866 0.010069 0.00238787
0 0.00848692 0.00262374
0.00173731 0.010015 0.00404432
0 0.00885053 0.00419359
0.00534538 0.00888647 -6.42204e-05
0.00537152 0.0100397 0.00162965
0.00635956 0.00482658 0.00231146
0.00913269 0.00455581 -0.000114211
0.00713359 1.37886e-05 0.00414906
0.00717058 1.40508e-05 0.00577765
0.00168728 0.0100148 0.00240328
0.0107994 0.0024648 -0.000137022
0.0126063 0.00455389 0.0071348
0.00904719 0.0100599 0.00492059
0.00728098 0.00339426 0.00996081
0.00311753 1.3946e-05 0.00132712
0.0125862 0.00246215 0.00849725
0.00306459 0.00481388 0.0049731
0.00739071 0.00436278 -9.069e-05
0.010513 0.00585094 -0.000133667
0.00699073 0.0100479 0.00716995
0.0126044 0.00436131 0.00573287
0.00689076 0.0100482 0.00270343
0.00897682 9.60173e-06 0.00492244
0.00363772 0.0100297 0.00437165
0 0.00452174 0.00721958
0.00576007 0.00725636 0.00996785
0.00692823 1.49035e-05 0.00717239
0.00460271 0.00510433 0.00355532
0.0054408 0.010041 0.00496047
0.00538539 1.48314e-05 0.00496317
0.00468974 0.00524758 0.00613459
0 0.005744 0.00499998
0 0.00433013 0.00583333
0.00635194 0.00578122 -7.74306e-05
0.00635461 0.00637663 0.00349247
0.00682648 1.40936e-05 0.00270657
0.0126159 0.00578192 0.00489027
0.00471995 0.00643907 0.00480205
0.00729341 0.00503631 0.00996109
0.012605 0.00581414 0.00143826
0 0.00666667 0
0.0108639 0.00757258 -0.000139006
0.00421352 1.27195e-05 -4.45029e-05
0 0.01 0.00666667
0.00637312 0.0100455 0.00996388
0 0.00288419 0.00499914
0.0126154 0.0075461 0.00122274
0.0126027 0.00671446 -0.000160486
0 0.005 0.01
0.00633097 0.00291107 -7.58995e-05
0 0.005 0
0.0125544 -7.63983e-06 0.00320601
0.012636 0.0100779 0.00657507
0.0053429 0.0073094 -6.41476e-05
0.0125907 0.00290324 0.00489021
0.00630784 1.09504e-05 -7.15504e-05
0 0 0.00666667
0.00484514 0.00364626 0.00518468
0.0063158 1.42117e-05 0.00996314
0.0125594 -6.62156e-06 0.00657778
0 0 0.005
0.011117 0.0100706 0.00108601
0.0126212 0.00884312 0.00106736
0.012558 -6.98288e-06 0.00489264
0.0125887 0.00503479 -0.000161094
0.00155637 0.00123199 -1.46558e-05
0 0.00122008 0.00122008
0 0.00333333 0.01
0 0.00666667 0.01
0.0111036 0.00884022 -0.000142496
0.0126315 0.0100783 0.00320473
0.00539197 0.0100403 0.00334773
0.012617 0.00671438 0.00994096
0 0.00333333 0
0 0.00122008 0.00877992
0.00155376 1.07223e-05 0.00876602
0.00155668 0.00123207 0.00998718
0.0111299 0.0100677 0.0087185
0.00156652 0.00879193 0.00998674
0 0.00877992 0.00877992
0.0126346 0.00884205 0.00870802
0.00846871 0.0100584 -0.000105613
0.0125627 0.00122673 0.00107096
0.00156846 0.0100135 0.00876688
0.0111232 0.00883873 0.00994686
0.0126045 0.00503578 0.00994089
0 0 0.00333333
0.00839774 6.98153e-06 -9.9235e-05
0.0110407 6.60967e-07 0.00108964
0.00154281 1.05004e-05 0.00119897
0 0.00877992 0.00122008
0.00156525 0.00879243 -1.45315e-05
0.00155597 0.0100136 0.00119676
0.0125742 0.00122889 0.00870923
0.0110624 0.00123267 0.0099464
0.00840935 1.01135e-05 0.0099549
0.0110477 0.00122969 -0.000139693
0.011052 2.71307e-06 0.00871896
0.0125749 0.00335631 -0.000160556
0.00426146 0.0100322 0.00997301
0.00315188 0.0100268 0.00132499
0.00847885 0.0100568 0.00995568
0.0125903 0.0033553 0.00994021
0 0.01 0.005
0.00335257 0.00851198 -3.65762e-05
0.0126348 0.0100787 0.00488743
0 0.01 0.00333333
0 0.00166667 0
0.0125491 -7.13099e-06 0.00152272
0 0.00166667 0.01
0 0.00833333 0
0.0126112 0.00839459 -0.00016343
0.0125591 -5.3062e-06 0.00825894
0.0126259 0.0100773 0.00151877
0.0126363 0.0100763 0.0082577
0.00213919 0.0100183 0.0099832
0 0.01 0.00833333
0.0105537 0.0100698 -0.000132768
0.0104789 2.53623e-07 -0.000128825
0.0104928 4.06164e-06 0.00994721
0.01057 0.0100659 0.00994759
0 0 0.00833333
0.0126285 0.00839173 0.00994043
0.00211496 9.74233e-06 -1.96885e-05
0 0 0.00166667
0.00425817 0.0100333 -4.90965e-05
0.0125749 0.00167927 0.00994007
0.0125598 0.00167679 -0.000159393
0.00211665 1.17653e-05 0.00998408
0.00213692 0.0100186 -2.16413e-05
0 0.01 0.00166667
0.0126372 0.0100751 0.00993888
0 0 0.01
0.0126188 0.0100768 -0.000162302
0.0125589 -4.30059e-06 0.00993892
0 0.01 0.01
0.0125432 -8.39114e-06 -0.000156803
0 0.01 0
0 0 0
0.00636814 0.0100467 -7.80282e-05
0.00421759 1.65579e-05 0.0099732
0 0.00833333 0.01

CELLS 343 686
1 0
1 1
1 2
1 3
1 4
1 5
1 6
1 7
1 8
1 9
1 10
1 11
1 12
1 13
1 14
1 15
1 16
1 17
1 18
1 19
1 20
1 21
1 22
1 23
1 24
1 25
1 26
1 27
1 28
1 29
1 30
1 31
1 32
1 33
1 34
1 35
1 36
1 37
1 38
1 39
1 40
1 41
1 42
1 43
1 44
1 45
1 46
1 47
1 48
1 49
1 50
1 51
1 52
1 53
1 54
1 55
1 56
1 57
1 58
1 59
1 60
1 61
1 62
1 63
1 64
1 65
1 66
1 67
1 68
1 69
1 70
1 71
1 72
1 73
1 74
1 75
1 76
1 77
1 78
1 79
1 80
1 81
1 82
1 83
1 84
1 85
1 86
1 87
1 88
1 89
1 90
1 91
1 92
1 93
1 94
1 95
1 96
1 97
1 98
1 99
1 100
1 101
1 102
1 103
1 104
1 105
1 106
1 107
1 108
1 109
1 110
1 111
1 112
1 113
1 114
1 115
1 116
1 117
1 118
1 119
1 120
1 121
1 122
1 123
1 124
1 125
1 126
1 127
1 128
1 129
1 130
1 131
1 132
1 133
1 134
1 135
1 136
1 137
1 138
1 139
1 140
1 141
1 142
1 143
1 144
1 145
1 146
1 147
1 148
1 149
1 150
1 151
1 152
1 153
1 154
1 155
1 156
1 157
1 158
1 159
1 160
1 161
1 162
1 163
1 164
1 165
1 166
1 167
1 168
1 169
1 170
1 171
1 172
1 173
1 174
1 175
1 176
1 177
1 178
1 179
1 180
1 181
1 182
1 183
1 184
1 185
1 186
1 187
1 188
1 189
1 190
1 191
1 192
1 193
1 194
1 195
1 196
1 197
1 198
1 199
1 200
1 201
1 202
1 203
1 204
1 205
1 206
1 207
1 208
1 209
1 210
1 211
1 212
1 213
1 214
1 215
1 216
1 217
1 218
1 219
1 220
1 221
1 222
1 223
1 224
1 225
1 226
1 227
1 228
1 229
1 230
1 231
1 232
1 233
1 234
1 235
1 236
1 237
1 238
1 239
1 240
1 241
1 242
1 243
1 244
1 245
1 246
1 247
1 248
1 249
1 250
1 251
1 252
1 253
1 254
1 255
1 256
1 257
1 258
1 259
1 260
1 261
1 262
1 263
1 264
1 265
1 266
1 267
1 268
1 269
1 270
1 271
1 272
1 273
1 274
1 275
1 276
1 277
1 278
1 279
1 280
1 281
1 282
1 283
1 284
1 285
1 286
1 287
1 288
1 289
1 290
1 291
1 292
1 293
1 294
1 295
1 296
1 297
1 298
1 299
1 300
1 301
1 302
1 303
1 304
1 305
1 306
1 307
1 308
1 309
1 310
1 311
1 312
1 313
1 314
1 315
1 316
1 317
1 318
1 319
1 320
1 321
1 322
1 323
1 324
1 325
1 326
1 327
1 328
1 329
1 330
1 331
1 332
1 333
1 334
1 335
1 336
1 337
1 338
1 339
1 340
1 341
1 342

CELL_TYPES 343
1
1
1
1
1
1
1
1
1
1
1
1
1
1
1
1
1
1
1
1
1
1
1
1
1
1
1
1
1
1
1
1
1
1
1
1
1
1
1
1
1
1
1
1
1
1
1
1
1
1
1
1
1
1
1
1
1
1
1
1
1
1
1
1
1
1
1
1
1
1
1
1
1
1
1
1
1
1
1
1
1
1
1
1
1
1
1
1
1
1
1
1
1
1
1
1
1
1
1
1
1
1
1
1
1
1
1
1
1
1
1
1
1
1
1
1
1
1
1
1
1
1
1
1
1
1
1
1
1
1
1
1
1
1
1
1
1
1
1
1
1
1
1
1
1
1
1
1
1
1
1
1
1
1
1
1
1
1
1
1
1
1
1
1
1
1
1
1
1
1
1
1
1
1
1
1
1
1
1
1
1
1
1
1
1
1
1
1
1
1
1
1
1
1
1
1
1
1
1
1
1
1
1
1
1
1
1
1
1
1
1
1
1
1
1
1
1
1
1
1
1
1
1
1
1
1
1
1
1
1
1
1
1
1
1
1
1
1
1
1
1
1
1
1
1
1
1
1
1
1
1
1
1
1
1
1
1
1
1
1
1
1
1
1
1
1
1
1
1
1
1
1
1
1
1
1
1
1
1
1
1
1
1
1
1
1
1
1
1
1
1
1
1
1
1
1
1
1
1
1
1
1
1
1
1
1
1
1
1
1
1
1
1
1
1
1
1
1
1
1
1
1
1
1
1
1
1
1
1
1
1
1
1
1
1
1
1
1
1
1
1
1
1

POINT_DATA 343
FIELD FieldData 3

ExternalForceID_(#) 1 343 int
0
1
2
3
4
5
6
7
8
9
10
11
12
13
14
15
16
17
18
19
20
21
22
23
24
25
26
27
28
29
30
31
32
33
34
35
36
37
38
39
40
41
42
43
44
45
46
47
48
49
50
51
52
53
54
55
56
57
58
59
60
61
62
63
64
65
66
67
68
69
70
71
72
73
74
75
76
77
78
79
80
81
82
83
84
85
86
87
88
89
90
91
92
93
94
95
96
97
98
99
100
101
102
103
104
105
106
107
108
109
110
111
112
113
114
115
116
117
118
119
120
121
122
123
124
125
126
127
128
129
130
131
132
133
134
135
136
137
138
139
140
141
142
143
144
145
146
147
148
149
150
151
152
153
154
155
156
157
158
159
160
161
162
163
164
165
166
167
168
169
170
171
172
173
174
175
176
177
178
179
180
181
182
183
184
185
186
187
188
189
190
191
192
193
194
195
196
197
198
199
200
201
202
203
204
205
206
207
208
209
210
211
212
213
214
215
216
217
218
219
220
221
222
223
224
225
226
227
228
229
230
231
232
233
234
235
236
237
238
239
240
241
242
243
244
245
246
247
248
249
250
251
252
253
254
255
256
257
258
259
260
261
262
263
264
265
266
267
268
269
270
271
272
273
274
275
276
277
278
279
280
281
282
283
284
285
286
287
288
289
290
291
292
293
294
295
296
297
298
299
300
301
302
303
304
305
306
307
308
309
310
311
312
313
314
315
316
317
318
319
320
321
322
323
324
325
326
327
328
329
330
331
332
333
334
335
336
337
338
339
340
341
342

ExternalForceType_(0/1/2/3/4) 1 343 int
0
0
0
0
0
0
0
0
0
0
0
0
0
0
0
0
0
0
0
0
0
0
0
0
0
0
0
0
0
0
0
0
0
0
0
0
0
0
0
0
0
0
0
0
0
0
0
0
0
0
0
0
0
0
0
0
0
0
0
0
0
0
0
0
0
0
0
0
0
0
0
0
0
0
0
0
0
0
0
0
0
0
0
0
0
0
0
0
0
0
0
0
0
0
0
0
0
0
0
0
0
0
0
0
0
0
0
0
0
0
0
0
0
0
0
0
0
0
0
0
0
0
0
0
0
0
0
0
0
0
0
0
0
0
0
0
0
0
0
0
0
0
0
0
0
0
0
0
0
0
0
0
0
0
0
0
0
0
0
0
0
0
0
0
0
0
0
0
0
0
0
0
0
0
0
0
0
0
0
0
0
0
0
0
0
0
0
0
0
0
0
0
0
0
0
0
0
0
0
0
0
0
0
0
0
0
0
0
0
0
0
0
0
0
0
0
0
0
0
0
0
0
0
0
0
0
0
0
0
0
0
0
0
0
0
0
0
0
0
0
0
0
0
0
0
0
0
0
0
0
0
0
0
0
0
0
0
0
0
0
0
0
0
0
0
0
0
0
0
0
0
0
0
0
0
0
0
0
0
0
0
0
0
0
0
0
0
0
0
0
0
0
0
0
0
0
0
0
0
0
0
0
0
0
0
0
0
0
0
0
0
0
0
0
0
0
0
0
0
0
0
0
0
0
0
0
0
0
0
0
0
0
0
0
0
0
0
0
0
0
0
0
0

ExternalForce_(N) 3 343 double
0 -3.09568e-05 0
0 -0.000138619 0
0 -2.16714e-05 0
0 -0.000168226 0
0 -8.26002e-05 0
0 -8.9203e-05 0
0 -9.74165e-05 0
0 -7.37906e-05 0
0 -6.68156e-05 0
0 -5.47617e-05 0
0 -3.04981e-05 0
0 -0.000105531 0
0 -4.77758e-05 0
0 -0.000161821 0
0 -2.96713e-05 0
0 -7.9067e-05 0
0 -6.57564e-05 0
0 -0.000106704 0
0 -4.11017e-05 0
0 -8.006e-05 0
0 -6.02474e-05 0
0 -0.000115662 0
0 -2.18875e-05 0
0 -4.17098e-05 0
0 -0.000107827 0
0 -7.27379e-05 0
0 -4.13856e-05 0
0 -3.85027e-05 0
0 -3.029e-05 0
0 -0.000128774 0
0 -7.57947e-05 0
0 -0.000162261 0
0 -0.000116775 0
0 -7.15802e-05 0
0 -3.74431e-05 0
0 -0.000108892 0
0 -3.74072e-05 0
0 -0.000136493 0
0 -6.25303e-05 0
0 -7.85756e-05 0
0 -7.52544e-05 0
0 -0.000116589 0
0 -0.000160874 0
0 -2.73339e-05 0
0 -8.7662e-05 0
0 -2.53184e-05 0
0 -7.42972e-05 0
0 -4.15199e-05 0
0 -0.000128792 0
0 -3.72945e-05 0
0 -2.72189e-05 0
0 -7.03157e-05 0
0 -0.000119003 0
0 -5.02041e-05 0
0 -8.04153e-05 0
0 -4.4939e-05 0
0 -2.74192e-05 0
0 -3.19929e-05 0
0 -4.04607e-05 0
0 -2.07889e-05 0
0 -3.28809e-05 0
0 -3.54797e-05 0
0 -0.000153858 0
0 -7.19739e-05 0
0 -8.09026e-05 0
0 -4.90862e-05 0
0 -2.77255e-05 0
0 -7.06591e-05 0
0 -3.20606e-05 0
0 -4.10794e-05 0
0 -1.98932e-05 0
0 -2.37551e-05 0
0 -3.0591e-05 0
0 -5.86107e-05 0
0 -5.75946e-05 0
0 -4.01595e-05 0
0 -5.35099e-05 0
0 -2.24477e-05 0
0 -4.41213e-05 0
0 -4.29866e-05 0
0 -4.42325e-05 0
0 -4.30889e-05 0
0 -4.19155e-05 0
0 -5.21923e-05 0
0 -1.5029e-05 0
0 -2.34331e-05 0
0 -1.9903e-05 0
0 -4.30461e-05 0
0 -3.11931e-05 0
0 -3.08326e-05 0
0 -4.52797e-05 0
0 -5.7648e-05 0
0 -8.02544e-05 0
0 -2.43623e-05 0
0 -0.000150893 0
0 -3.43039e-05 0
0 -7.21258e-05 0
0 -1.97489e-05 0
0 -2.00202e-05 0
0 -7.83017e-05 0
0 -4.32908e-05 0
0 -7.00326e-05 0
0 -1.17841e-05 0
0 -4.93779e-05 0
0 -1.58193e-05 0
0 -4.04762e-05 0
0 -8.57147e-05 0
0 -4.2953e-05 0
0 -7.82027e-05 0
0 -2.09499e-05 0
0 -3.31713e-05 0
0 -9.30599e-05 0
0 -7.26197e-05 0
0 -1.76801e-05 0
0 -2.06228e-05 0
0 -7.8371e-05 0
0 -1.84411e-05 0
0 -7.30662e-05 0
0 -4.11806e-05 0
0 -2.3265e-05 0
0 -4.23503e-05 0
0 -5.94919e-05 0
0 -4.22718e-05 0
0 -2.12723e-05 0
0 -1.86252e-05 0
0 -1.77849e-05 0
0 -3.82356e-05 0
0 -2.39658e-05 0
0 -1.62481e-05 0
0 -7.86148e-05 0
0 -1.61387e-05 0
0 -2.34763e-05 0
0 -2.95637e-05 0
0 -2.93742e-05 0
0 -1.33947e-05 0
0 -1.83735e-05 0
0 -2.05639e-05 0
0 -1.91062e-05 0
0 -1.84053e-05 0
0 -6.25793e-05 0
0 -4.49914e-05 0
0 -1.98914e-05 0
0 -1.58922e-05 0
0 -2.367e-05 0
0 -3.81266e-05 0
0 -4.36518e-05 0
0 -2.25472e-05 0
0 -0.000115119 0
0 -3.05886e-05 0
0 -1.32828e-05 0
0 -3.38507e-05 0
0 -1.78391e-05 0
0 -2.88237e-05 0
0 -1.34771e-05 0
0 -2.36876e-05 0
0 -2.06453e-05 0
0 -2.58912e-05 0
0 -2.10097e-05 0
0 -1.7602e-05 0
0 -3.13896e-05 0
0 -1.34386e-05 0
0 -2.38863e-05 0
0 -2.04203e-05 0
0 -1.33426e-05 0
0 -2.13076e-05 0
0 -1.86316e-05 0
0 -3.10974e-05 0
0 -2.56228e-05 0
0 -2.33161e-05 0
0 -1.57181e-05 0
0 -1.87061e-05 0
0 -5.38771e-05 0
0 -1.84308e-05 0
0 -3.08341e-05 0
0 -2.91652e-05 0
0 -1.16203e-05 0
0 -1.85667e-05 0
0 -2.00287e-05 0
0 -2.68375e-05 0
0 -2.37799e-05 0
0 -3.16945e-05 0
0 -3.13676e-05 0
0 -3.15313e-05 0
0 -1.90796e-05 0
0 -1.58134e-05 0
0 -1.83326e-05 0
0 -3.16308e-05 0
0 -2.07128e-05 0
0 -2.91276e-05 0
0 -6.03597e-05 0
0 -2.26581e-05 0
0 -2.35174e-05 0
0 -2.33506e-05 0
0 -2.59482e-05 0
0 -1.63393e-05 0
0 -1.78912e-05 0
0 -2.02658e-05 0
0 -5.62379e-05 0
0 -2.04507e-05 0
0 -2.14176e-05 0
0 -2.38895e-05 0
0 -3.05955e-05 0
0 -3.11287e-05 0
0 -2.01544e-05 0
0 -1.92198e-05 0
0 -2.99909e-05 0
0 -6.32085e-05 0
0 -2.04829e-05 0
0 -2.67435e-05 0
0 -2.11611e-05 0
0 -1.83262e-05 0
0 -1.96474e-05 0
0 -2.0699e-05 0
0 -2.83503e-05 0
0 -2.27807e-05 0
0 -2.35234e-05 0
0 -1.93874e-05 0
0 -6.29086e-05 0
0 -2.12117e-05 0
0 -3.22943e-05 0
0 -2.06229e-05 0
0 -2.61501e-05 0
0 -1.90721e-05 0
0 -2.86319e-05 0
0 -2.53212e-05 0
0 -2.07681e-05 0
0 -2.05553e-05 0
0 -1.88077e-05 0
0 -6.92631e-05 0
0 -2.20924e-05 0
0 -2.02457e-05 0
0 -6.16224e-05 0
0 -2.08117e-05 0
0 -2.85397e-05 0
0 -2.08875e-05 0
0 -6.32617e-05 0
0 -1.39008e-05 0
0 -2.0289e-05 0
0 -6.45558e-05 0
0 -2.47785e-05 0
0 -2.35177e-05 0
0 -7.28089e-06 0
0 -2.18143e-05 0
0 -6.93323e-06 0
0 -6.87344e-06 0
0 -8.76768e-06 0
0 -2.48719e-05 0
0 -2.22231e-05 0
0 -1.31068e-05 0
0 -7.69816e-06 0
0 -2.27889e-05 0
0 -5.95166e-06 0
0 -6.55579e-06 0
0 -6.71305e-06 0
0 -2.46468e-05 0
0 -2.27228e-05 0
0 -7.6878e-06 0
0 -6.67903e-06 0
0 -6.10861e-05 0
0 -6.6189e-06 0
0 -6.52665e-06 0
0 -6.87836e-06 0
0 -1.78856e-05 0
0 -1.87072e-05 0
0 -6.73674e-06 0
0 -6.91401e-06 0
0 -1.82903e-05 0
0 -2.2423e-05 0
0 -6.67521e-06 0
0 -7.02401e-06 0
0 -1.78908e-05 0
0 -5.89658e-06 0
0 -1.98938e-05 0
0 -7.3162e-06 0
0 -5.63509e-06 0
0 -1.76631e-05 0
0 -1.42638e-05 0
0 -2.22707e-05 0
0 -1.77204e-05 0
0 -2.11264e-05 0
0 -1.75686e-05 0
0 -1.76047e-05 0
0 -6.69346e-06 0
0 -2.20467e-05 0
0 -1.42479e-05 0
0 -1.76144e-05 0
0 -6.84615e-06 0
0 -6.12404e-06 0
0 -6.50125e-06 0
0 -1.41879e-05 0
0 -1.37476e-05 0
0 -2.11168e-05 0
0 -1.79377e-05 0
0 -1.37282e-05 0
0 -1.41198e-05 0
0 -2.15061e-05 0
0 -6.84475e-06 0
0 -1.74349e-05 0
0 -1.75758e-05 0
0 -6.41828e-06 0
0 -7.20025e-06 0
0 -2.30432e-05 0
0 -6.96894e-06 0
0 -6.44499e-06 0
0 -6.14414e-06 0
0 -2.14766e-05 0
0 -6.00855e-06 0
0 -5.92427e-06 0
0 -5.81567e-06 0
0 -5.02303e-06 0
0 -5.01945e-06 0
0 -4.85271e-06 0
0 -4.87573e-06 0
0 -4.8684e-06 0
0 -5.22951e-06 0
0 -4.84801e-06 0
0 -4.88396e-06 0
0 -4.77612e-06 0
0 -4.81304e-06 0
0 -4.85251e-06 0
0 -4.8555e-06 0
0 -4.82575e-06 0
0 -4.80313e-06 0
0 -4.86923e-06 0
0 -4.85781e-06 0
0 -4.73027e-06 0
0 -1.08748e-05 0
0 -5.22863e-06 0
0 -5.34413e-06 0
0 -5.26459e-06 0
0 -5.05624e-06 0
0 -4.92238e-06 0
0 -5.43253e-06 0
0 -5.43253e-06 0
0 -5.43253e-06 0
0 -5.43253e-06 0
0 -5.43253e-06 0
0 -5.43253e-06 0
0 -5.40321e-06 0
0 -5.40321e-06 0
0 -7.3113e-06 0
0 -6.98147e-06 0
0 -4.8949e-06 0

