# vtk DataFile Version 4.2
vtk output
ASCII
DATASET UNSTRUCTURED_GRID

POINTS 343 double
0.00112225 0.00419494 7.93652e-08
0.00217068 0.00498261 0.00217525
0 0.00419538 0.00112517
0.00192999 0.00195454 0.00194208
0.00517025 0.00240766 0.00503136
0.00517304 0.00383074 0.00639656
0.00762259 0.00477694 0.00499679
0.00622395 0.0048514 0.00369044
0.00683771 0.00328991 0.00691213
0.00499099 0.00499314 0.004999
0.00418282 0.00111879 0.00999823
0.005283 0.00208115 0.00790287
0.00419252 -6.7356e-06 0.00831637
0.00201295 0.00200256 0.00803313
0.00428828 0.00253345 0.00999822
0.00695684 0.00644798 0.006945
0.00641326 0.00618343 0.00518157
0.00226086 0.00218474 0.00514597
0 0.00143586 0.00417514
0.00159456 0.00346618 0.004037
0.00683687 0.00319526 0.00315985
0.00774651 0.00221475 0.00506169
0 0.00270918 0.00154168
0.0041576 0.00142916 -4.34562e-07
0.00500761 0.00218864 0.00219704
0.00396176 0.00352712 0.00160251
0.00134564 -5.82366e-07 0.00405996
0.00418364 -7.15919e-06 0.00168759
0.00262493 0.00695177 -7.56646e-08
0.00193765 0.00805277 0.00194482
0.00408631 0.00624838 0.00164448
0.00800313 0.00798752 0.00799458
0.00796643 0.00481717 0.00801963
0.0083882 0.00608127 0.00594518
0.00999667 0.00882774 0.00418825
0.00757565 0.00763705 0.00496151
0.00856417 0.00998174 0.00416372
0.00797354 0.00797262 0.00201358
0.00353679 0.00303686 0.00695908
0.00443879 0.00366239 0.00832308
0.00389341 0.00160103 0.00596856
0.00500566 0.0076689 0.00767557
0.00198971 0.00800797 0.00798954
0.00282699 0.00999748 0.00712693
0.00391603 0.00839989 0.00595732
0 0.00695361 0.00262895
0.0016463 0.00623932 0.00408783
0 0.0040177 0.00850214
0.00231531 0.0049858 0.00766135
0.00143368 0.00417452 0.00999991
0.0071764 0.0071193 0.00999547
0.00611928 0.0059716 0.00841561
0.00205159 0.00794146 0.00474175
0.00304366 0.00694305 0.00646744
0.00158694 0.00607839 0.00592595
0.00999039 0.00578593 0.00831063
0 0.00718191 0.00711644
0.00158401 0.0057735 2.73554e-09
0 0.00577432 0.00158701
0.00999391 0.00715962 0.00711013
0.00286882 0.00334951 0.00999926
0.00997114 0.00141144 0.00417035
0.00803584 0.00194462 0.00197655
0.00838928 0.00350382 0.00399552
0.00372638 0.00164848 0.00412794
0.00150906 0.00999969 0.00581497
0.00281088 -3.27487e-06 0.00712745
0.00611155 0.00417236 0.0083741
0.00999121 0.00725165 0.00419056
0.0085302 -2.01583e-05 0.00416457
0.00334068 0.00286996 -2.44186e-07
0.0027019 0.0015391 0.00999932
0.00281902 -3.6649e-06 0.00283182
0.00479876 0.00519457 0.00755318
0.00315812 0.00314651 0.0031671
0 0.00849157 0.00581511
0.0048647 0.00367011 0.00378539
0.00153673 0.00270869 3.63269e-09
0.00580077 0.00831681 0.00999666
0.00598463 0.00999021 0.00850312
0.00421393 0.00999454 0.00831641
0.0040186 0.00849879 0.0099981
0.00999709 0.00846905 0.00580921
0.00314679 0.0068337 0.0031506
0 0.00748929 0.00137438
0.00137283 0.00748898 1.1045e-08
0 0.00287343 0.00335182
0 0.00580816 0.00831736
0 0.00429792 0.00253898
0.00253255 0.00429606 -4.78389e-08
0.00143426 0.0058192 0.00999991
0.00517544 0.00646919 0.00639899
0.00360395 0.0065096 0.0082332
0.0069358 0.00261436 0.0099959
0.0080025 0.0019415 0.00803129
0.00694292 -1.50842e-05 0.00308001
0.00600129 0.00165354 0.00361138
0.00997519 0.00284979 0.00334727
0 0.00140616 0.00256446
0.00637277 0.00821771 0.00641863
0.00579571 0.00142437 -8.94691e-07
0.00602102 0.00354197 0.00160178
0.00315635 0.00999678 0.00582478
0.0085605 0.00998193 0.00582875
0.00255352 0.00140327 -6.30534e-08
0.0059503 -1.20416e-05 0.00149313
0.00627833 0.00827771 0.00361543
0.00852661 -1.99839e-05 0.00582932
0.00618859 0.0016617 0.00636316
0.00140282 0.00256407 0.00999996
0.00710757 0.00716899 -2.14706e-06
0.00516302 0.00768293 0.00216777
0.00593424 0.00608463 0.00160039
0 0.00686719 0.00578184
0.00996942 0.00138153 0.00256024
0.00177248 0.00360994 0.00640777
0.0099939 0.00846407 0.00261887
0.00840217 0.00617224 0.0041292
0.00597938 0.00998958 0.00149213
0.00694505 -1.47572e-05 0.0069236
0.00997285 0.00141125 0.0058142
0.00838056 0.00355575 0.00605681
0.0015023 -7.19561e-07 0.00581514
0 0.0013659 0.00748679
0.00136421 -5.82588e-07 0.00752889
0.00999142 0.00684481 0.00577603
0.00581152 0.00848206 -1.45959e-06
0 0.0075208 0.00859127
0.00136544 0.00748649 0.00999982
0.00422965 0.00820076 0.00362762
0.00859503 0.00998183 0.00750704
0.00999941 0.00860784 0.00751979
0.0057587 0.00157668 0.0099969
0.00724849 0.00417488 0.00999556
0 0.0057735 0.00666667
0.0013702 0.00999962 0.00752889
0 0.00863025 0.00752641
0.00855521 -2.05547e-05 0.00250444
0.00998854 0.00693091 0.00262424
0.00844794 0.00632474 0.00215966
0.00850264 0.00580682 0.00999432
0.00746989 0.00135859 0.00999529
0.00856102 -2.01446e-05 0.00750726
0.00997429 0.00134174 0.00748055
0 0.00143551 0.00581971
0.00595582 -1.15337e-05 0.00850313
0.00419417 -7.15978e-06 0.00339939
0.00791836 0.00469187 0.00203177
0.00997924 0.00427485 0.00253454
0.0042308 0.00999435 0.00666542
0.00283527 0.00999755 0.00283168
0.00130715 -6.41852e-07 0.0024183
0 0.00727418 0.00419576
0.00998853 0.00575119 0.00666056
0.00697433 0.00998671 0.00307913
0.00750958 0.00862294 0.00999512
0 0.00574334 0.00336387
0 0.0043297 0.00416652
0.00686426 0.00577269 0.0099959
0.00997934 0.00299891 0.00690923
0.00420807 -6.92155e-06 0.00666578
0.00248037 0.00999784 0.00861108
0.00745831 0.00134949 -1.86389e-06
0.00577209 0.00665846 0.00999669
0.00999664 0.00749861 0.00858434
0.00860722 0.00753629 0.00999413
0.00689319 0.00300877 -1.52655e-06
0.00335727 0.00574065 -1.83172e-07
0.00752146 0.00861554 -2.59035e-06
0.00751497 0.0099847 0.00138454
0.0057738 0.00685842 -1.37391e-06
0.00696627 0.0063587 0.00303111
0.0074826 -1.71796e-05 0.00138566
0.00288157 0.00499734 0.00999914
0.00432711 0.00582907 0.00999796
0.00432338 0.004162 0.00999801
0.00752155 0.00998528 0.00861148
0.00246641 -2.72349e-06 0.00861129
0.00998497 0.00572074 0.00335911
0 0.00302218 0.00691532
0.00998434 0.00399503 0.00849543
0.0084801 0.00399938 -2.68439e-06
0.00997287 0.00268521 0.0015377
0 0.00244495 0.00857025
0.00244654 0.00856841 0.00999915
0.00748926 -1.66197e-05 0.00861146
0.00846999 0.00260568 0.00999435
0.0088388 0.00417519 0.00999399
0.00567406 0.00999077 0.00583135
0.005184 0.00757656 0.00503099
0.00564513 0.00999071 0.00421355
0.00697635 0.00998703 0.00692324
0.00302161 0.00691347 0.00999886
0.00415552 0.00432507 -3.84272e-07
0.00282227 -3.75321e-06 0.00440452
0.0031389 -4.18157e-06 0.00582522
0.00997756 0.00417205 0.00112114
0.00363617 0.00833358 0.00158772
0.00998099 0.00430677 0.00416155
0.00665382 0.00576203 -1.60545e-06
0.00858933 0.00998141 0.00250333
0 0.00848692 0.00262374
0.00135176 0.00999968 0.00405984
0 0.00885053 0.00419359
0.00419203 0.00884487 -6.87739e-07
0.00420605 0.00999419 0.00168692
0.00498877 0.00478505 0.00237792
0.00720165 0.00450802 -1.81694e-06
0.0056176 -1.10309e-05 0.00421434
0.0056466 -1.0949e-05 0.0058318
0.00131311 0.0099997 0.00241806
0.00854278 0.00242566 -2.60206e-06
0.00998478 0.00449914 0.0072133
0.00711798 0.00998646 0.00499723
0.00573283 0.00335516 0.00999694
0.00244586 -3.00614e-06 0.00135655
0.00997901 0.00242141 0.00856361
0.00239169 0.0047899 0.00499974
0.00581774 0.00432084 -1.04418e-06
0.00830179 0.00579097 -2.82942e-06
0.00548385 0.00999143 0.00721827
0.00998268 0.00430736 0.00582766
0.00540446 0.00999123 0.00277415
0.00708628 -1.53265e-05 0.00499793
0.00283806 0.00999755 0.00440412
0 0.00452174 0.00721958
0.00452133 0.00721508 0.00999777
0.0054569 -1.02267e-05 0.00721831
0.00359754 0.00507077 0.00359614
0.00425483 0.00999431 0.00500725
0.00423151 -7.10391e-06 0.00500791
0.00366636 0.00521375 0.00617399
0 0.005744 0.00499998
0 0.00433013 0.00583333
0.00499017 0.00573773 -7.59883e-07
0.00497915 0.00633298 0.0035528
0.00537744 -1.04561e-05 0.002775
0.00998668 0.00572158 0.00499455
0.00368742 0.00640468 0.00484342
0.00573804 0.00499211 0.00999685
0.00998339 0.0057515 0.00158274
0 0.00666667 0
0.00858117 0.00750284 -3.28759e-06
0.00331607 -5.52671e-06 2.94369e-07
0 0.01 0.00666667
0.00500684 0.00999243 0.00999751
0 0.00288419 0.00499914
0.00998922 0.00746645 0.00136999
0.00998514 0.00664378 -4.30955e-06
0 0.005 0.01
0.00498189 0.00287656 -6.88064e-07
0 0.005 0
0.00996536 -2.53211e-05 0.003329
0.0100033 0.00997686 0.00666029
0.00419071 0.00726944 -6.06308e-07
0.00997685 0.00286075 0.00499391
0.00497549 -9.86415e-06 -2.20116e-07
0 0 0.00666667
0.00379069 0.00361305 0.0052258
0.00498217 -9.37195e-06 0.00999716
0.00996875 -2.50614e-05 0.00666083
0 0 0.005
0.00877923 0.00998056 0.00121635
0.00999361 0.00875673 0.00121553
0.00996702 -2.51562e-05 0.00499493
0.00997938 0.00497671 -4.05785e-06
0.00121541 0.00121933 -2.39452e-08
0 0.00122008 0.00122008
0 0.00333333 0.01
0 0.00666667 0.01
0.00877398 0.00876083 -3.60416e-06
0.00999994 0.00997649 0.00332807
0.0042173 0.00999427 0.00339884
0.0099951 0.00664459 0.00999281
0 0.00333333 0
0 0.00122008 0.00877992
0.00121546 -7.38067e-07 0.00877965
0.00121662 0.00121956 0.0100001
0.00878664 0.00998116 0.00877418
0.00122017 0.00877951 0.00999983
0 0.00877992 0.00877992
0.0100013 0.00875747 0.00877293
0.00666669 0.00998721 -2.35743e-06
0.00996742 0.00119516 0.00121632
0.00122094 0.00999949 0.00877998
0.00878382 0.00876168 0.00999397
0.0099893 0.00497765 0.00999285
0 0 0.00333333
0.006636 -1.4584e-05 -9.97479e-07
0.00874495 -2.14069e-05 0.00121755
0.00120601 -8.15726e-07 0.00121199
0 0.00877992 0.00122008
0.00121932 0.00877941 6.98085e-08
0.00121169 0.00999955 0.00121137
0.00997504 0.00119576 0.00877308
0.00875779 0.00119985 0.00999397
0.00664455 -1.41234e-05 0.00999557
0.00874794 0.00119922 -2.62848e-06
0.0087525 -2.087e-05 0.00877408
0.00997367 0.00330954 -3.84088e-06
0.00333838 0.009996 0.00999893
0.00246018 0.00999805 0.00135612
0.00667494 0.00998796 0.00999609
0.00998353 0.00331042 0.00999286
0 0.01 0.005
0.00262221 0.00848477 -1.03842e-07
0.0100016 0.0099767 0.00499427
0 0.01 0.00333333
0 0.00166667 0
0.00996371 -2.55567e-05 0.00166295
0 0.00166667 0.01
0 0.00833333 0
0.00999103 0.00831012 -4.51734e-06
0.00997045 -2.50908e-05 0.00832655
0.00999833 0.00997629 0.00166187
0.010005 0.00997691 0.00832644
0.00166899 0.00999864 0.00999971
0 0.01 0.00833333
0.00833213 0.00998186 -3.467e-06
0.0082983 -2.01823e-05 -2.13285e-06
0.00830795 -1.96337e-05 0.00999412
0.0083415 0.00998252 0.00999445
0 0 0.00833333
0.010001 0.00831102 0.00999275
0.00165789 -1.95864e-06 1.26662e-07
0 0 0.00166667
0.00333472 0.00999608 -4.49526e-07
0.0099778 0.0016425 0.0099928
0.00996789 0.00164182 -3.68629e-06
0.00166002 -1.57511e-06 0.00999982
0.0016674 0.00999889 -6.07391e-08
0 0.01 0.00166667
0.0100068 0.00997699 0.0099928
0 0 0.01
0.00999682 0.00997608 -4.80342e-06
0.0099721 -2.52094e-05 0.00999254
0 0.01 0.01
0.00996215 -2.57198e-05 -3.4399e-06
0 0.01 0
0 0 0
0.00500081 0.00999195 -1.26822e-06
0.0033208 -5.01068e-06 0.00999848
0 0.00833333 0.01

CELLS 343 686
1 0
1 1
1 2
1 3
1 4
1 5
1 6
1 7
1 8
1 9
1 10
1 11
1 12
1 13
1 14
1 15
1 16
1 17
1 18
1 19
1 20
1 21
1 22
1 23
1 24
1 25
1 26
1 27
1 28
1 29
1 30
1 31
1 32
1 33
1 34
1 35
1 36
1 37
1 38
1 39
1 40
1 41
1 42
1 43
1 44
1 45
1 46
1 47
1 48
1 49
1 50
1 51
1 52
1 53
1 54
1 55
1 56
1 57
1 58
1 59
1 60
1 61
1 62
1 63
1 64
1 65
1 66
1 67
1 68
1 69
1 70
1 71
1 72
1 73
1 74
1 75
1 76
1 77
1 78
1 79
1 80
1 81
1 82
1 83
1 84
1 85
1 86
1 87
1 88
1 89
1 90
1 91
1 92
1 93
1 94
1 95
1 96
1 97
1 98
1 99
1 100
1 101
1 102
1 103
1 104
1 105
1 106
1 107
1 108
1 109
1 110
1 111
1 112
1 113
1 114
1 115
1 116
1 117
1 118
1 119
1 120
1 121
1 122
1 123
1 124
1 125
1 126
1 127
1 128
1 129
1 130
1 131
1 132
1 133
1 134
1 135
1 136
1 137
1 138
1 139
1 140
1 141
1 142
1 143
1 144
1 145
1 146
1 147
1 148
1 149
1 150
1 151
1 152
1 153
1 154
1 155
1 156
1 157
1 158
1 159
1 160
1 161
1 162
1 163
1 164
1 165
1 166
1 167
1 168
1 169
1 170
1 171
1 172
1 173
1 174
1 175
1 176
1 177
1 178
1 179
1 180
1 181
1 182
1 183
1 184
1 185
1 186
1 187
1 188
1 189
1 190
1 191
1 192
1 193
1 194
1 195
1 196
1 197
1 198
1 199
1 200
1 201
1 202
1 203
1 204
1 205
1 206
1 207
1 208
1 209
1 210
1 211
1 212
1 213
1 214
1 215
1 216
1 217
1 218
1 219
1 220
1 221
1 222
1 223
1 224
1 225
1 226
1 227
1 228
1 229
1 230
1 231
1 232
1 233
1 234
1 235
1 236
1 237
1 238
1 239
1 240
1 241
1 242
1 243
1 244
1 245
1 246
1 247
1 248
1 249
1 250
1 251
1 252
1 253
1 254
1 255
1 256
1 257
1 258
1 259
1 260
1 261
1 262
1 263
1 264
1 265
1 266
1 267
1 268
1 269
1 270
1 271
1 272
1 273
1 274
1 275
1 276
1 277
1 278
1 279
1 280
1 281
1 282
1 283
1 284
1 285
1 286
1 287
1 288
1 289
1 290
1 291
1 292
1 293
1 294
1 295
1 296
1 297
1 298
1 299
1 300
1 301
1 302
1 303
1 304
1 305
1 306
1 307
1 308
1 309
1 310
1 311
1 312
1 313
1 314
1 315
1 316
1 317
1 318
1 319
1 320
1 321
1 322
1 323
1 324
1 325
1 326
1 327
1 328
1 329
1 330
1 331
1 332
1 333
1 334
1 335
1 336
1 337
1 338
1 339
1 340
1 341
1 342

CELL_TYPES 343
1
1
1
1
1
1
1
1
1
1
1
1
1
1
1
1
1
1
1
1
1
1
1
1
1
1
1
1
1
1
1
1
1
1
1
1
1
1
1
1
1
1
1
1
1
1
1
1
1
1
1
1
1
1
1
1
1
1
1
1
1
1
1
1
1
1
1
1
1
1
1
1
1
1
1
1
1
1
1
1
1
1
1
1
1
1
1
1
1
1
1
1
1
1
1
1
1
1
1
1
1
1
1
1
1
1
1
1
1
1
1
1
1
1
1
1
1
1
1
1
1
1
1
1
1
1
1
1
1
1
1
1
1
1
1
1
1
1
1
1
1
1
1
1
1
1
1
1
1
1
1
1
1
1
1
1
1
1
1
1
1
1
1
1
1
1
1
1
1
1
1
1
1
1
1
1
1
1
1
1
1
1
1
1
1
1
1
1
1
1
1
1
1
1
1
1
1
1
1
1
1
1
1
1
1
1
1
1
1
1
1
1
1
1
1
1
1
1
1
1
1
1
1
1
1
1
1
1
1
1
1
1
1
1
1
1
1
1
1
1
1
1
1
1
1
1
1
1
1
1
1
1
1
1
1
1
1
1
1
1
1
1
1
1
1
1
1
1
1
1
1
1
1
1
1
1
1
1
1
1
1
1
1
1
1
1
1
1
1
1
1
1
1
1
1
1
1
1
1
1
1
1
1
1
1
1
1
1
1
1
1
1
1
1
1
1
1
1
1
1
1
1
1
1
1
1
1
1
1
1
1
1
1
1
1
1
1
1
1
1
1
1
1

POINT_DATA 343
FIELD FieldData 3

ExternalForceID_(#) 1 343 int
0
1
2
3
4
5
6
7
8
9
10
11
12
13
14
15
16
17
18
19
20
21
22
23
24
25
26
27
28
29
30
31
32
33
34
35
36
37
38
39
40
41
42
43
44
45
46
47
48
49
50
51
52
53
54
55
56
57
58
59
60
61
62
63
64
65
66
67
68
69
70
71
72
73
74
75
76
77
78
79
80
81
82
83
84
85
86
87
88
89
90
91
92
93
94
95
96
97
98
99
100
101
102
103
104
105
106
107
108
109
110
111
112
113
114
115
116
117
118
119
120
121
122
123
124
125
126
127
128
129
130
131
132
133
134
135
136
137
138
139
140
141
142
143
144
145
146
147
148
149
150
151
152
153
154
155
156
157
158
159
160
161
162
163
164
165
166
167
168
169
170
171
172
173
174
175
176
177
178
179
180
181
182
183
184
185
186
187
188
189
190
191
192
193
194
195
196
197
198
199
200
201
202
203
204
205
206
207
208
209
210
211
212
213
214
215
216
217
218
219
220
221
222
223
224
225
226
227
228
229
230
231
232
233
234
235
236
237
238
239
240
241
242
243
244
245
246
247
248
249
250
251
252
253
254
255
256
257
258
259
260
261
262
263
264
265
266
267
268
269
270
271
272
273
274
275
276
277
278
279
280
281
282
283
284
285
286
287
288
289
290
291
292
293
294
295
296
297
298
299
300
301
302
303
304
305
306
307
308
309
310
311
312
313
314
315
316
317
318
319
320
321
322
323
324
325
326
327
328
329
330
331
332
333
334
335
336
337
338
339
340
341
342

ExternalForceType_(0/1/2/3/4) 1 343 int
0
0
0
0
0
0
0
0
0
0
0
0
0
0
0
0
0
0
0
0
0
0
0
0
0
0
0
0
0
0
0
0
0
0
0
0
0
0
0
0
0
0
0
0
0
0
0
0
0
0
0
0
0
0
0
0
0
0
0
0
0
0
0
0
0
0
0
0
0
0
0
0
0
0
0
0
0
0
0
0
0
0
0
0
0
0
0
0
0
0
0
0
0
0
0
0
0
0
0
0
0
0
0
0
0
0
0
0
0
0
0
0
0
0
0
0
0
0
0
0
0
0
0
0
0
0
0
0
0
0
0
0
0
0
0
0
0
0
0
0
0
0
0
0
0
0
0
0
0
0
0
0
0
0
0
0
0
0
0
0
0
0
0
0
0
0
0
0
0
0
0
0
0
0
0
0
0
0
0
0
0
0
0
0
0
0
0
0
0
0
0
0
0
0
0
0
0
0
0
0
0
0
0
0
0
0
0
0
0
0
0
0
0
0
0
0
0
0
0
0
0
0
0
0
0
0
0
0
0
0
0
0
0
0
0
0
0
0
0
0
0
0
0
0
0
0
0
0
0
0
0
0
0
0
0
0
0
0
0
0
0
0
0
0
0
0
0
0
0
0
0
0
0
0
0
0
0
0
0
0
0
0
0
0
0
0
0
0
0
0
0
0
0
0
0
0
0
0
0
0
0
0
0
0
0
0
0
0
0
0
0
0
0
0
0
0
0
0
0
0
0
0
0
0
0
0
0
0
0
0
0
0
0
0
0
0
0
0
0
0
0
0
0

ExternalForce_(N) 3 343 double
0 -3.09568e-05 0
0 -0.000138619 0
0 -2.16714e-05 0
0 -0.000168226 0
0 -8.26002e-05 0
0 -8.9203e-05 0
0 -9.74165e-05 0
0 -7.37906e-05 0
0 -6.68156e-05 0
0 -5.47617e-05 0
0 -3.04981e-05 0
0 -0.000105531 0
0 -4.77758e-05 0
0 -0.000161821 0
0 -2.96713e-05 0
0 -7.9067e-05 0
0 -6.57564e-05 0
0 -0.000106704 0
0 -4.11017e-05 0
0 -8.006e-05 0
0 -6.02474e-05 0
0 -0.000115662 0
0 -2.18875e-05 0
0 -4.17098e-05 0
0 -0.000107827 0
0 -7.27379e-05 0
0 -4.13856e-05 0
0 -3.85027e-05 0
0 -3.029e-05 0
0 -0.000128774 0
0 -7.57947e-05 0
0 -0.000162261 0
0 -0.000116775 0
0 -7.15802e-05 0
0 -3.74431e-05 0
0 -0.000108892 0
0 -3.74072e-05 0
0 -0.000136493 0
0 -6.25303e-05 0
0 -7.85756e-05 0
0 -7.52544e-05 0
0 -0.000116589 0
0 -0.000160874 0
0 -2.73339e-05 0
0 -8.7662e-05 0
0 -2.53184e-05 0
0 -7.42972e-05 0
0 -4.15199e-05 0
0 -0.000128792 0
0 -3.72945e-05 0
0 -2.72189e-05 0
0 -7.03157e-05 0
0 -0.000119003 0
0 -5.02041e-05 0
0 -8.04153e-05 0
0 -4.4939e-05 0
0 -2.74192e-05 0
0 -3.19929e-05 0
0 -4.04607e-05 0
0 -2.07889e-05 0
0 -3.28809e-05 0
0 -3.54797e-05 0
0 -0.000153858 0
0 -7.19739e-05 0
0 -8.09026e-05 0
0 -4.90862e-05 0
0 -2.77255e-05 0
0 -7.06591e-05 0
0 -3.20606e-05 0
0 -4.10794e-05 0
0 -1.98932e-05 0
0 -2.37551e-05 0
0 -3.0591e-05 0
0 -5.86107e-05 0
0 -5.75946e-05 0
0 -4.01595e-05 0
0 -5.35099e-05 0
0 -2.24477e-05 0
0 -4.41213e-05 0
0 -4.29866e-05 0
0 -4.42325e-05 0
0 -4.30889e-05 0
0 -4.19155e-05 0
0 -5.21923e-05 0
0 -1.5029e-05 0
0 -2.34331e-05 0
0 -1.9903e-05 0
0 -4.30461e-05 0
0 -3.11931e-05 0
0 -3.08326e-05 0
0 -4.52797e-05 0
0 -5.7648e-05 0
0 -8.02544e-05 0
0 -2.43623e-05 0
0 -0.000150893 0
0 -3.43039e-05 0
0 -7.21258e-05 0
0 -1.97489e-05 0
0 -2.00202e-05 0
0 -7.83017e-05 0
0 -4.32908e-05 0
0 -7.00326e-05 0
0 -1.17841e-05 0
0 -4.93779e-05 0
0 -1.58193e-05 0
0 -4.04762e-05 0
0 -8.57147e-05 0
0 -4.2953e-05 0
0 -7.82027e-05 0
0 -2.09499e-05 0
0 -3.31713e-05 0
0 -9.30599e-05 0
0 -7.26197e-05 0
0 -1.76801e-05 0
0 -2.06228e-05 0
0 -7.8371e-05 0
0 -1.84411e-05 0
0 -7.30662e-05 0
0 -4.11806e-05 0
0 -2.3265e-05 0
0 -4.23503e-05 0
0 -5.94919e-05 0
0 -4.22718e-05 0
0 -2.12723e-05 0
0 -1.86252e-05 0
0 -1.77849e-05 0
0 -3.82356e-05 0
0 -2.39658e-05 0
0 -1.62481e-05 0
0 -7.86148e-05 0
0 -1.61387e-05 0
0 -2.34763e-05 0
0 -2.95637e-05 0
0 -2.93742e-05 0
0 -1.33947e-05 0
0 -1.83735e-05 0
0 -2.05639e-05 0
0 -1.91062e-05 0
0 -1.84053e-05 0
0 -6.25793e-05 0
0 -4.49914e-05 0
0 -1.98914e-05 0
0 -1.58922e-05 0
0 -2.367e-05 0
0 -3.81266e-05 0
0 -4.36518e-05 0
0 -2.25472e-05 0
0 -0.000115119 0
0 -3.05886e-05 0
0 -1.32828e-05 0
0 -3.38507e-05 0
0 -1.78391e-05 0
0 -2.88237e-05 0
0 -1.34771e-05 0
0 -2.36876e-05 0
0 -2.06453e-05 0
0 -2.58912e-05 0
0 -2.10097e-05 0
0 -1.7602e-05 0
0 -3.13896e-05 0
0 -1.34386e-05 0
0 -2.38863e-05 0
0 -2.04203e-05 0
0 -1.33426e-05 0
0 -2.13076e-05 0
0 -1.86316e-05 0
0 -3.10974e-05 0
0 -2.56228e-05 0
0 -2.33161e-05 0
0 -1.57181e-05 0
0 -1.87061e-05 0
0 -5.38771e-05 0
0 -1.84308e-05 0
0 -3.08341e-05 0
0 -2.91652e-05 0
0 -1.16203e-05 0
0 -1.85667e-05 0
0 -2.00287e-05 0
0 -2.68375e-05 0
0 -2.37799e-05 0
0 -3.16945e-05 0
0 -3.13676e-05 0
0 -3.15313e-05 0
0 -1.90796e-05 0
0 -1.58134e-05 0
0 -1.83326e-05 0
0 -3.16308e-05 0
0 -2.07128e-05 0
0 -2.91276e-05 0
0 -6.03597e-05 0
0 -2.26581e-05 0
0 -2.35174e-05 0
0 -2.33506e-05 0
0 -2.59482e-05 0
0 -1.63393e-05 0
0 -1.78912e-05 0
0 -2.02658e-05 0
0 -5.62379e-05 0
0 -2.04507e-05 0
0 -2.14176e-05 0
0 -2.38895e-05 0
0 -3.05955e-05 0
0 -3.11287e-05 0
0 -2.01544e-05 0
0 -1.92198e-05 0
0 -2.99909e-05 0
0 -6.32085e-05 0
0 -2.04829e-05 0
0 -2.67435e-05 0
0 -2.11611e-05 0
0 -1.83262e-05 0
0 -1.96474e-05 0
0 -2.0699e-05 0
0 -2.83503e-05 0
0 -2.27807e-05 0
0 -2.35234e-05 0
0 -1.93874e-05 0
0 -6.29086e-05 0
0 -2.12117e-05 0
0 -3.22943e-05 0
0 -2.06229e-05 0
0 -2.61501e-05 0
0 -1.90721e-05 0
0 -2.86319e-05 0
0 -2.53212e-05 0
0 -2.07681e-05 0
0 -2.05553e-05 0
0 -1.88077e-05 0
0 -6.92631e-05 0
0 -2.20924e-05 0
0 -2.02457e-05 0
0 -6.16224e-05 0
0 -2.08117e-05 0
0 -2.85397e-05 0
0 -2.08875e-05 0
0 -6.32617e-05 0
0 -1.39008e-05 0
0 -2.0289e-05 0
0 -6.45558e-05 0
0 -2.47785e-05 0
0 -2.35177e-05 0
0 -7.28089e-06 0
0 -2.18143e-05 0
0 -6.93323e-06 0
0 -6.87344e-06 0
0 -8.76768e-06 0
0 -2.48719e-05 0
0 -2.22231e-05 0
0 -1.31068e-05 0
0 -7.69816e-06 0
0 -2.27889e-05 0
0 -5.95166e-06 0
0 -6.55579e-06 0
0 -6.71305e-06 0
0 -2.46468e-05 0
0 -2.27228e-05 0
0 -7.6878e-06 0
0 -6.67903e-06 0
0 -6.10861e-05 0
0 -6.6189e-06 0
0 -6.52665e-06 0
0 -6.87836e-06 0
0 -1.78856e-05 0
0 -1.87072e-05 0
0 -6.73674e-06 0
0 -6.91401e-06 0
0 -1.82903e-05 0
0 -2.2423e-05 0
0 -6.67521e-06 0
0 -7.02401e-06 0
0 -1.78908e-05 0
0 -5.89658e-06 0
0 -1.98938e-05 0
0 -7.3162e-06 0
0 -5.63509e-06 0
0 -1.76631e-05 0
0 -1.42638e-05 0
0 -2.22707e-05 0
0 -1.77204e-05 0
0 -2.11264e-05 0
0 -1.75686e-05 0
0 -1.76047e-05 0
0 -6.69346e-06 0
0 -2.20467e-05 0
0 -1.42479e-05 0
0 -1.76144e-05 0
0 -6.84615e-06 0
0 -6.12404e-06 0
0 -6.50125e-06 0
0 -1.41879e-05 0
0 -1.37476e-05 0
0 -2.11168e-05 0
0 -1.79377e-05 0
0 -1.37282e-05 0
0 -1.41198e-05 0
0 -2.15061e-05 0
0 -6.84475e-06 0
0 -1.74349e-05 0
0 -1.75758e-05 0
0 -6.41828e-06 0
0 -7.20025e-06 0
0 -2.30432e-05 0
0 -6.96894e-06 0
0 -6.44499e-06 0
0 -6.14414e-06 0
0 -2.14766e-05 0
0 -6.00855e-06 0
0 -5.92427e-06 0
0 -5.81567e-06 0
0 -5.02303e-06 0
0 -5.01945e-06 0
0 -4.85271e-06 0
0 -4.87573e-06 0
0 -4.8684e-06 0
0 -5.22951e-06 0
0 -4.84801e-06 0
0 -4.88396e-06 0
0 -4.77612e-06 0
0 -4.81304e-06 0
0 -4.85251e-06 0
0 -4.8555e-06 0
0 -4.82575e-06 0
0 -4.80313e-06 0
0 -4.86923e-06 0
0 -4.85781e-06 0
0 -4.73027e-06 0
0 -1.08748e-05 0
0 -5.22863e-06 0
0 -5.34413e-06 0
0 -5.26459e-06 0
0 -5.05624e-06 0
0 -4.92238e-06 0
0 -5.43253e-06 0
0 -5.43253e-06 0
0 -5.43253e-06 0
0 -5.43253e-06 0
0 -5.43253e-06 0
0 -5.43253e-06 0
0 -5.40321e-06 0
0 -5.40321e-06 0
0 -7.3113e-06 0
0 -6.98147e-06 0
0 -4.8949e-06 0

