# vtk DataFile Version 4.2
vtk output
ASCII
DATASET UNSTRUCTURED_GRID

POINTS 343 double
0.00112254 0.00419481 1.20455e-07
0.00217125 0.00498218 0.0021755
0 0.00419538 0.00112517
0.00192924 0.00195411 0.00194229
0.00516546 0.00240363 0.00503318
0.00516926 0.00382731 0.00639848
0.00762104 0.00476929 0.00500113
0.00622414 0.0048464 0.00369326
0.00683155 0.00328334 0.00691573
0.00499022 0.00499016 0.00500066
0.00417453 0.00111548 0.00999994
0.00527527 0.0020767 0.00790515
0.00418373 -1.02911e-05 0.00831784
0.00201084 0.00200218 0.00803342
0.00428155 0.00253067 0.0100001
0.00695651 0.00644199 0.00694867
0.00641431 0.00617834 0.0051845
0.00225925 0.00218418 0.00514625
0 0.00143586 0.00417514
0.00159411 0.00346601 0.00403705
0.00683449 0.00318853 0.00316338
0.00773979 0.0022059 0.00506625
0 0.00270918 0.00154168
0.00415611 0.0014258 1.1131e-06
0.00500492 0.00218448 0.00219934
0.00396193 0.00352507 0.00160402
0.00134403 -7.59807e-07 0.00406009
0.00417901 -1.06414e-05 0.00168932
0.00262794 0.00695111 5.13986e-07
0.00193926 0.00805253 0.00194506
0.00408923 0.00624675 0.00164602
0.00800471 0.00797935 0.00799958
0.00796144 0.0048089 0.0080246
0.00838825 0.00607225 0.00595045
0.0100047 0.00881518 0.00419532
0.00758005 0.00762968 0.00496569
0.00857447 0.00997195 0.00416903
0.00798212 0.00796439 0.00201846
0.00353369 0.00303528 0.00695992
0.00443426 0.00365998 0.00832486
0.00388841 0.00159845 0.0059695
0.00500655 0.00766574 0.00767761
0.00198986 0.0080076 0.0079897
0.00282968 0.00999639 0.00712729
0.00391859 0.00839789 0.00595823
0 0.00695361 0.00262895
0.00164665 0.00623904 0.00408797
0 0.0040177 0.00850214
0.00231455 0.00498535 0.00766164
0.00143269 0.00417431 0.00999999
0.00717439 0.00711276 0.00999975
0.0061169 0.00596702 0.00841877
0.00205245 0.0079412 0.00474193
0.00304403 0.00694226 0.00646793
0.00158686 0.00607818 0.00592608
0.00998698 0.00577344 0.00831796
0 0.00718191 0.00711644
0.00158511 0.00577322 1.34733e-07
0 0.00577432 0.00158701
0.00999483 0.00714721 0.00711743
0.00286518 0.00334849 0.0100001
0.00996326 0.00139756 0.00417759
0.00803198 0.001935 0.0019816
0.00838626 0.00349417 0.00400082
0.00372246 0.00164607 0.00412881
0.00151028 0.0099996 0.00581504
0.00280541 -4.91929e-06 0.00712798
0.00610607 0.00416753 0.00837724
0.00999587 0.00723922 0.00419767
0.00851957 -3.13594e-05 0.00417014
0.00334141 0.00286845 7.15722e-07
0.00269694 0.00153782 0.0100001
0.00281484 -5.37904e-06 0.00283233
0.00479623 0.00519196 0.00755505
0.00315698 0.00314536 0.00316768
0 0.00849157 0.00581511
0.00486302 0.003667 0.00378708
0.00153682 0.00270854 9.73017e-08
0.00580065 0.00831228 0.00999961
0.00598868 0.00998521 0.00850628
0.00421667 0.00999195 0.00831798
0.00401851 0.00849642 0.00999955
0.0100023 0.00845659 0.00581635
0.00314828 0.00683283 0.00315122
0 0.00748929 0.00137438
0.00137416 0.00748896 4.71647e-08
0 0.00287343 0.00335182
0 0.00580816 0.00831736
0 0.00429792 0.00253898
0.00253419 0.00429534 4.92521e-07
0.0014335 0.00581906 0.01
0.00517568 0.00646605 0.00640091
0.00360288 0.00650846 0.00823427
0.00692537 0.00260726 0.01
0.00799163 0.00193206 0.00803626
0.00693464 -2.31522e-05 0.00308383
0.00599604 0.0016477 0.00361417
0.00997136 0.00283646 0.00335453
0 0.00140616 0.00256446
0.00637593 0.00821238 0.00642154
0.0057933 0.00141855 2.10051e-06
0.00602068 0.00353675 0.00160495
0.00315972 0.00999526 0.00582542
0.00856875 0.00997216 0.0058341
0.00255283 0.0014019 5.42425e-07
0.00594407 -1.83215e-05 0.0014964
0.00628447 0.00827247 0.00361833
0.00851404 -3.11176e-05 0.00583482
0.00618051 0.00165564 0.00636599
0.00140135 0.00256399 0.0100001
0.00711609 0.00716242 2.13307e-06
0.00516869 0.00767948 0.00216995
0.00593856 0.00608036 0.00160342
0 0.00686719 0.00578184
0.00996336 0.00136758 0.00256754
0.00177158 0.00360967 0.00640796
0.010003 0.0084515 0.0026261
0.00840458 0.00616312 0.00413442
0.00599021 0.00998433 0.00149513
0.00693258 -2.28484e-05 0.00692721
0.00996299 0.00139742 0.00582144
0.00837512 0.00354619 0.00606214
0.0015004 -9.9774e-07 0.00581525
0 0.0013659 0.00748679
0.00136231 -8.68258e-07 0.00752892
0.00999329 0.00683241 0.00578318
0.00582118 0.00847746 1.58945e-06
0 0.0075208 0.00859127
0.00136501 0.00748633 0.00999993
0.00423367 0.00819842 0.00362869
0.00860129 0.00997195 0.00751263
0.0100029 0.00859544 0.00752706
0.00574776 0.0015712 0.00999992
0.00724065 0.00416793 0.00999999
0 0.0057735 0.00666667
0.00137099 0.00999953 0.00752897
0 0.00863025 0.00752641
0.00854649 -3.1959e-05 0.00251016
0.00999438 0.00691847 0.00263144
0.00845303 0.00631547 0.00216506
0.00849749 0.00579757 0.01
0.00745662 0.00134987 0.00999995
0.00854645 -3.1487e-05 0.00751272
0.00996226 0.00132787 0.00748784
0 0.00143551 0.00581971
0.00594321 -1.77909e-05 0.00850604
0.00418801 -1.07649e-05 0.00340073
0.00792009 0.0046834 0.00203661
0.00997943 0.0042619 0.00254173
0.00423505 0.00999162 0.0066666
0.0028396 0.00999642 0.00283214
0.00130588 -8.28793e-07 0.0024184
0 0.00727418 0.00419576
0.00998693 0.00573866 0.00666776
0.00698467 0.00997979 0.00308274
0.00751021 0.00861539 0.0099998
0 0.00574334 0.00336387
0 0.0043297 0.00416652
0.00685972 0.00576677 0.00999999
0.00997151 0.00298575 0.00691647
0.00419996 -1.05505e-05 0.00666699
0.00248206 0.00999693 0.00861156
0.00745542 0.00134061 2.81324e-06
0.00576942 0.00665436 0.0099997
0.00999656 0.00748624 0.00859162
0.00860566 0.00752687 0.00999994
0.00689341 0.00300175 2.61844e-06
0.00336042 0.00573964 8.98161e-07
0.00753302 0.00860798 2.15728e-06
0.00752756 0.0099767 0.00138908
0.00578072 0.00685419 1.66696e-06
0.00697016 0.00635254 0.00303481
0.00747566 -2.65059e-05 0.00139038
0.00287904 0.00499652 0.01
0.00432368 0.00582711 0.00999982
0.00431834 0.00415981 0.00999994
0.00752614 0.00997743 0.00861615
0.00246122 -4.20843e-06 0.00861175
0.0099873 0.00570809 0.00336626
0 0.00302218 0.00691532
0.00997677 0.00398224 0.00850278
0.00848265 0.00398943 3.08177e-06
0.00997083 0.00267172 0.00154494
0 0.00244495 0.00857025
0.00244625 0.00856748 0.00999975
0.00747455 -2.59344e-05 0.00861586
0.00845808 0.00259561 0.01
0.00883003 0.00416489 0.01
0.00568001 0.00998606 0.00583353
0.00518687 0.00757316 0.00503277
0.00565267 0.00998599 0.00421572
0.00698247 0.00998023 0.00692679
0.0030201 0.0069128 0.00999978
0.00415785 0.00432302 1.37942e-06
0.00281778 -5.58873e-06 0.00440506
0.00313326 -6.26609e-06 0.00582589
0.00997917 0.00415899 0.00112842
0.00364079 0.00833176 0.00158898
0.00997932 0.00429391 0.00416879
0.00665933 0.00575628 2.28826e-06
0.00860164 0.00997148 0.0025088
0 0.00848692 0.00262374
0.00135287 0.00999955 0.00405989
0 0.00885053 0.00419359
0.00419945 0.00884224 1.10009e-06
0.00421372 0.00999133 0.00168844
0.00498984 0.00478213 0.00237995
0.00720488 0.00450086 2.61859e-06
0.00560953 -1.68333e-05 0.00421672
0.00563694 -1.67694e-05 0.00583405
0.00131453 0.00999957 0.00241806
0.00854202 0.00241511 3.22309e-06
0.00997982 0.00448642 0.00722056
0.00712639 0.00997937 0.00500088
0.00572497 0.00335062 0.00999996
0.00244291 -4.30786e-06 0.00135707
0.00996797 0.00240794 0.008571
0.0023914 0.00478935 0.00500011
0.00582018 0.00431623 2.17176e-06
0.00830812 0.00578191 2.76417e-06
0.0054886 0.00998711 0.0072206
0.00997895 0.00429455 0.0058349
0.00541313 0.00998684 0.00277625
0.00707581 -2.36153e-05 0.00500177
0.00284178 0.00999644 0.0044045
0 0.00452174 0.00721958
0.0045197 0.00721268 0.00999969
0.00544635 -1.56738e-05 0.00722049
0.00359775 0.00506942 0.0035969
0.00426033 0.0099915 0.00500835
0.00422426 -1.07807e-05 0.00500911
0.0036655 0.00521241 0.00617483
0 0.005744 0.00499998
0 0.00433013 0.00583333
0.00499465 0.00573496 1.7335e-06
0.00498146 0.00633013 0.00355454
0.00537073 -1.58693e-05 0.00277746
0.00998702 0.005709 0.00500174
0.00368823 0.00640337 0.00484415
0.00573282 0.00498816 0.00999989
0.00998788 0.0057388 0.00158996
0 0.00666667 0
0.00859118 0.0074933 2.55317e-06
0.00331334 -8.36169e-06 1.71171e-06
0 0.01 0.00666667
0.00500862 0.00998857 0.01
0 0.00288419 0.00499914
0.0099977 0.00745402 0.00137725
0.00999339 0.00663119 3.15588e-06
0 0.005 0.01
0.00498202 0.0028728 1.64396e-06
0 0.005 0
0.00995532 -3.97593e-05 0.00333631
0.0100107 0.00996407 0.00666743
0.00419625 0.00726738 1.1858e-06
0.00997098 0.00284753 0.00500117
0.00497151 -1.49938e-05 2.37409e-06
0 0 0.00666667
0.00378867 0.00361138 0.00522664
0.00497051 -1.42697e-05 0.00999944
0.00995476 -3.93841e-05 0.00666802
0 0 0.005
0.00879308 0.00997022 0.00122222
0.010005 0.00874409 0.00122279
0.00995499 -3.94921e-05 0.00500219
0.00998399 0.00496385 3.41797e-06
0.00121506 0.00121899 1.83035e-08
0 0.00122008 0.00122008
0 0.00333333 0.01
0 0.00666667 0.01
0.00878664 0.00875076 2.39769e-06
0.0100114 0.00996365 0.00333515
0.00422383 0.00999144 0.0033999
0.00999145 0.00663223 0.0100003
0 0.00333333 0
0 0.00122008 0.00877992
0.0012136 -1.12025e-06 0.00877966
0.00121512 0.00121935 0.0100002
0.00879146 0.00997084 0.00878028
0.00122007 0.00877931 0.00999991
0 0.00877992 0.00877992
0.0100037 0.00874496 0.0087803
0.00667987 0.00998073 1.41405e-06
0.0099625 0.00118102 0.00122365
0.00122149 0.0099993 0.00878024
0.00878478 0.00875159 0.0100001
0.00998202 0.004965 0.0100004
0 0 0.00333333
0.0066308 -2.24619e-05 3.14951e-06
0.00873763 -3.33754e-05 0.00122367
0.00120497 -1.12144e-06 0.00121231
0 0.00877992 0.00122008
0.00122078 0.0087793 1.60632e-07
0.00121329 0.00999936 0.00121143
0.00996112 0.00118179 0.00878042
0.00874276 0.00118843 0.00999994
0.00662962 -2.17261e-05 0.00999929
0.00874453 0.00118761 3.45659e-06
0.00873637 -3.27024e-05 0.00877987
0.00997472 0.00329622 3.61361e-06
0.00333955 0.00999393 0.0100003
0.00246459 0.00999713 0.00135658
0.00667785 0.0099815 0.0100002
0.00997266 0.00329743 0.0100004
0 0.01 0.005
0.00262647 0.00848397 5.58113e-07
0.010011 0.00996387 0.00500135
0 0.01 0.00333333
0 0.00166667 0
0.00995566 -4.01107e-05 0.00167035
0 0.00166667 0.01
0 0.00833333 0
0.0100028 0.00829754 2.83296e-06
0.00995449 -3.95038e-05 0.00833379
0.0100118 0.00996339 0.00166909
0.0100104 0.00996411 0.00833386
0.00166974 0.00999801 0.0100001
0 0.01 0.00833333
0.00834701 0.00997234 2.06695e-06
0.0082925 -3.13899e-05 3.60984e-06
0.00829089 -3.06564e-05 0.00999957
0.00834481 0.00997291 0.0100002
0 0 0.00833333
0.010001 0.00829852 0.0100003
0.00165625 -2.86662e-06 4.90285e-07
0 0 0.00166667
0.00334198 0.00999425 6.67389e-07
0.00996336 0.00162863 0.0100003
0.0099653 0.00162781 3.76475e-06
0.00165666 -2.3748e-06 0.0100002
0.00167052 0.00999843 2.37548e-07
0 0.01 0.00166667
0.0100103 0.00996406 0.0100004
0 0 0.01
0.0100122 0.00996321 2.47889e-06
0.00995413 -3.96096e-05 0.00999985
0 0.01 0.01
0.00995595 -4.0451e-05 4.118e-06
0 0.01 0
0 0 0
0.00501129 0.00998795 1.03783e-06
0.00331282 -7.45607e-06 0.00999955
0 0.00833333 0.01

CELLS 343 686
1 0
1 1
1 2
1 3
1 4
1 5
1 6
1 7
1 8
1 9
1 10
1 11
1 12
1 13
1 14
1 15
1 16
1 17
1 18
1 19
1 20
1 21
1 22
1 23
1 24
1 25
1 26
1 27
1 28
1 29
1 30
1 31
1 32
1 33
1 34
1 35
1 36
1 37
1 38
1 39
1 40
1 41
1 42
1 43
1 44
1 45
1 46
1 47
1 48
1 49
1 50
1 51
1 52
1 53
1 54
1 55
1 56
1 57
1 58
1 59
1 60
1 61
1 62
1 63
1 64
1 65
1 66
1 67
1 68
1 69
1 70
1 71
1 72
1 73
1 74
1 75
1 76
1 77
1 78
1 79
1 80
1 81
1 82
1 83
1 84
1 85
1 86
1 87
1 88
1 89
1 90
1 91
1 92
1 93
1 94
1 95
1 96
1 97
1 98
1 99
1 100
1 101
1 102
1 103
1 104
1 105
1 106
1 107
1 108
1 109
1 110
1 111
1 112
1 113
1 114
1 115
1 116
1 117
1 118
1 119
1 120
1 121
1 122
1 123
1 124
1 125
1 126
1 127
1 128
1 129
1 130
1 131
1 132
1 133
1 134
1 135
1 136
1 137
1 138
1 139
1 140
1 141
1 142
1 143
1 144
1 145
1 146
1 147
1 148
1 149
1 150
1 151
1 152
1 153
1 154
1 155
1 156
1 157
1 158
1 159
1 160
1 161
1 162
1 163
1 164
1 165
1 166
1 167
1 168
1 169
1 170
1 171
1 172
1 173
1 174
1 175
1 176
1 177
1 178
1 179
1 180
1 181
1 182
1 183
1 184
1 185
1 186
1 187
1 188
1 189
1 190
1 191
1 192
1 193
1 194
1 195
1 196
1 197
1 198
1 199
1 200
1 201
1 202
1 203
1 204
1 205
1 206
1 207
1 208
1 209
1 210
1 211
1 212
1 213
1 214
1 215
1 216
1 217
1 218
1 219
1 220
1 221
1 222
1 223
1 224
1 225
1 226
1 227
1 228
1 229
1 230
1 231
1 232
1 233
1 234
1 235
1 236
1 237
1 238
1 239
1 240
1 241
1 242
1 243
1 244
1 245
1 246
1 247
1 248
1 249
1 250
1 251
1 252
1 253
1 254
1 255
1 256
1 257
1 258
1 259
1 260
1 261
1 262
1 263
1 264
1 265
1 266
1 267
1 268
1 269
1 270
1 271
1 272
1 273
1 274
1 275
1 276
1 277
1 278
1 279
1 280
1 281
1 282
1 283
1 284
1 285
1 286
1 287
1 288
1 289
1 290
1 291
1 292
1 293
1 294
1 295
1 296
1 297
1 298
1 299
1 300
1 301
1 302
1 303
1 304
1 305
1 306
1 307
1 308
1 309
1 310
1 311
1 312
1 313
1 314
1 315
1 316
1 317
1 318
1 319
1 320
1 321
1 322
1 323
1 324
1 325
1 326
1 327
1 328
1 329
1 330
1 331
1 332
1 333
1 334
1 335
1 336
1 337
1 338
1 339
1 340
1 341
1 342

CELL_TYPES 343
1
1
1
1
1
1
1
1
1
1
1
1
1
1
1
1
1
1
1
1
1
1
1
1
1
1
1
1
1
1
1
1
1
1
1
1
1
1
1
1
1
1
1
1
1
1
1
1
1
1
1
1
1
1
1
1
1
1
1
1
1
1
1
1
1
1
1
1
1
1
1
1
1
1
1
1
1
1
1
1
1
1
1
1
1
1
1
1
1
1
1
1
1
1
1
1
1
1
1
1
1
1
1
1
1
1
1
1
1
1
1
1
1
1
1
1
1
1
1
1
1
1
1
1
1
1
1
1
1
1
1
1
1
1
1
1
1
1
1
1
1
1
1
1
1
1
1
1
1
1
1
1
1
1
1
1
1
1
1
1
1
1
1
1
1
1
1
1
1
1
1
1
1
1
1
1
1
1
1
1
1
1
1
1
1
1
1
1
1
1
1
1
1
1
1
1
1
1
1
1
1
1
1
1
1
1
1
1
1
1
1
1
1
1
1
1
1
1
1
1
1
1
1
1
1
1
1
1
1
1
1
1
1
1
1
1
1
1
1
1
1
1
1
1
1
1
1
1
1
1
1
1
1
1
1
1
1
1
1
1
1
1
1
1
1
1
1
1
1
1
1
1
1
1
1
1
1
1
1
1
1
1
1
1
1
1
1
1
1
1
1
1
1
1
1
1
1
1
1
1
1
1
1
1
1
1
1
1
1
1
1
1
1
1
1
1
1
1
1
1
1
1
1
1
1
1
1
1
1
1
1
1
1
1
1
1
1
1
1
1
1
1
1

POINT_DATA 343
FIELD FieldData 3

ExternalForceID_(#) 1 343 int
0
1
2
3
4
5
6
7
8
9
10
11
12
13
14
15
16
17
18
19
20
21
22
23
24
25
26
27
28
29
30
31
32
33
34
35
36
37
38
39
40
41
42
43
44
45
46
47
48
49
50
51
52
53
54
55
56
57
58
59
60
61
62
63
64
65
66
67
68
69
70
71
72
73
74
75
76
77
78
79
80
81
82
83
84
85
86
87
88
89
90
91
92
93
94
95
96
97
98
99
100
101
102
103
104
105
106
107
108
109
110
111
112
113
114
115
116
117
118
119
120
121
122
123
124
125
126
127
128
129
130
131
132
133
134
135
136
137
138
139
140
141
142
143
144
145
146
147
148
149
150
151
152
153
154
155
156
157
158
159
160
161
162
163
164
165
166
167
168
169
170
171
172
173
174
175
176
177
178
179
180
181
182
183
184
185
186
187
188
189
190
191
192
193
194
195
196
197
198
199
200
201
202
203
204
205
206
207
208
209
210
211
212
213
214
215
216
217
218
219
220
221
222
223
224
225
226
227
228
229
230
231
232
233
234
235
236
237
238
239
240
241
242
243
244
245
246
247
248
249
250
251
252
253
254
255
256
257
258
259
260
261
262
263
264
265
266
267
268
269
270
271
272
273
274
275
276
277
278
279
280
281
282
283
284
285
286
287
288
289
290
291
292
293
294
295
296
297
298
299
300
301
302
303
304
305
306
307
308
309
310
311
312
313
314
315
316
317
318
319
320
321
322
323
324
325
326
327
328
329
330
331
332
333
334
335
336
337
338
339
340
341
342

ExternalForceType_(0/1/2/3/4) 1 343 int
0
0
0
0
0
0
0
0
0
0
0
0
0
0
0
0
0
0
0
0
0
0
0
0
0
0
0
0
0
0
0
0
0
0
0
0
0
0
0
0
0
0
0
0
0
0
0
0
0
0
0
0
0
0
0
0
0
0
0
0
0
0
0
0
0
0
0
0
0
0
0
0
0
0
0
0
0
0
0
0
0
0
0
0
0
0
0
0
0
0
0
0
0
0
0
0
0
0
0
0
0
0
0
0
0
0
0
0
0
0
0
0
0
0
0
0
0
0
0
0
0
0
0
0
0
0
0
0
0
0
0
0
0
0
0
0
0
0
0
0
0
0
0
0
0
0
0
0
0
0
0
0
0
0
0
0
0
0
0
0
0
0
0
0
0
0
0
0
0
0
0
0
0
0
0
0
0
0
0
0
0
0
0
0
0
0
0
0
0
0
0
0
0
0
0
0
0
0
0
0
0
0
0
0
0
0
0
0
0
0
0
0
0
0
0
0
0
0
0
0
0
0
0
0
0
0
0
0
0
0
0
0
0
0
0
0
0
0
0
0
0
0
0
0
0
0
0
0
0
0
0
0
0
0
0
0
0
0
0
0
0
0
0
0
0
0
0
0
0
0
0
0
0
0
0
0
0
0
0
0
0
0
0
0
0
0
0
0
0
0
0
0
0
0
0
0
0
0
0
0
0
0
0
0
0
0
0
0
0
0
0
0
0
0
0
0
0
0
0
0
0
0
0
0
0
0
0
0
0
0
0
0
0
0
0
0
0
0
0
0
0
0
0

ExternalForce_(N) 3 343 double
0 -3.09568e-05 0
0 -0.000138619 0
0 -2.16714e-05 0
0 -0.000168226 0
0 -8.26002e-05 0
0 -8.9203e-05 0
0 -9.74165e-05 0
0 -7.37906e-05 0
0 -6.68156e-05 0
0 -5.47617e-05 0
0 -3.04981e-05 0
0 -0.000105531 0
0 -4.77758e-05 0
0 -0.000161821 0
0 -2.96713e-05 0
0 -7.9067e-05 0
0 -6.57564e-05 0
0 -0.000106704 0
0 -4.11017e-05 0
0 -8.006e-05 0
0 -6.02474e-05 0
0 -0.000115662 0
0 -2.18875e-05 0
0 -4.17098e-05 0
0 -0.000107827 0
0 -7.27379e-05 0
0 -4.13856e-05 0
0 -3.85027e-05 0
0 -3.029e-05 0
0 -0.000128774 0
0 -7.57947e-05 0
0 -0.000162261 0
0 -0.000116775 0
0 -7.15802e-05 0
0 -3.74431e-05 0
0 -0.000108892 0
0 -3.74072e-05 0
0 -0.000136493 0
0 -6.25303e-05 0
0 -7.85756e-05 0
0 -7.52544e-05 0
0 -0.000116589 0
0 -0.000160874 0
0 -2.73339e-05 0
0 -8.7662e-05 0
0 -2.53184e-05 0
0 -7.42972e-05 0
0 -4.15199e-05 0
0 -0.000128792 0
0 -3.72945e-05 0
0 -2.72189e-05 0
0 -7.03157e-05 0
0 -0.000119003 0
0 -5.02041e-05 0
0 -8.04153e-05 0
0 -4.4939e-05 0
0 -2.74192e-05 0
0 -3.19929e-05 0
0 -4.04607e-05 0
0 -2.07889e-05 0
0 -3.28809e-05 0
0 -3.54797e-05 0
0 -0.000153858 0
0 -7.19739e-05 0
0 -8.09026e-05 0
0 -4.90862e-05 0
0 -2.77255e-05 0
0 -7.06591e-05 0
0 -3.20606e-05 0
0 -4.10794e-05 0
0 -1.98932e-05 0
0 -2.37551e-05 0
0 -3.0591e-05 0
0 -5.86107e-05 0
0 -5.75946e-05 0
0 -4.01595e-05 0
0 -5.35099e-05 0
0 -2.24477e-05 0
0 -4.41213e-05 0
0 -4.29866e-05 0
0 -4.42325e-05 0
0 -4.30889e-05 0
0 -4.19155e-05 0
0 -5.21923e-05 0
0 -1.5029e-05 0
0 -2.34331e-05 0
0 -1.9903e-05 0
0 -4.30461e-05 0
0 -3.11931e-05 0
0 -3.08326e-05 0
0 -4.52797e-05 0
0 -5.7648e-05 0
0 -8.02544e-05 0
0 -2.43623e-05 0
0 -0.000150893 0
0 -3.43039e-05 0
0 -7.21258e-05 0
0 -1.97489e-05 0
0 -2.00202e-05 0
0 -7.83017e-05 0
0 -4.32908e-05 0
0 -7.00326e-05 0
0 -1.17841e-05 0
0 -4.93779e-05 0
0 -1.58193e-05 0
0 -4.04762e-05 0
0 -8.57147e-05 0
0 -4.2953e-05 0
0 -7.82027e-05 0
0 -2.09499e-05 0
0 -3.31713e-05 0
0 -9.30599e-05 0
0 -7.26197e-05 0
0 -1.76801e-05 0
0 -2.06228e-05 0
0 -7.8371e-05 0
0 -1.84411e-05 0
0 -7.30662e-05 0
0 -4.11806e-05 0
0 -2.3265e-05 0
0 -4.23503e-05 0
0 -5.94919e-05 0
0 -4.22718e-05 0
0 -2.12723e-05 0
0 -1.86252e-05 0
0 -1.77849e-05 0
0 -3.82356e-05 0
0 -2.39658e-05 0
0 -1.62481e-05 0
0 -7.86148e-05 0
0 -1.61387e-05 0
0 -2.34763e-05 0
0 -2.95637e-05 0
0 -2.93742e-05 0
0 -1.33947e-05 0
0 -1.83735e-05 0
0 -2.05639e-05 0
0 -1.91062e-05 0
0 -1.84053e-05 0
0 -6.25793e-05 0
0 -4.49914e-05 0
0 -1.98914e-05 0
0 -1.58922e-05 0
0 -2.367e-05 0
0 -3.81266e-05 0
0 -4.36518e-05 0
0 -2.25472e-05 0
0 -0.000115119 0
0 -3.05886e-05 0
0 -1.32828e-05 0
0 -3.38507e-05 0
0 -1.78391e-05 0
0 -2.88237e-05 0
0 -1.34771e-05 0
0 -2.36876e-05 0
0 -2.06453e-05 0
0 -2.58912e-05 0
0 -2.10097e-05 0
0 -1.7602e-05 0
0 -3.13896e-05 0
0 -1.34386e-05 0
0 -2.38863e-05 0
0 -2.04203e-05 0
0 -1.33426e-05 0
0 -2.13076e-05 0
0 -1.86316e-05 0
0 -3.10974e-05 0
0 -2.56228e-05 0
0 -2.33161e-05 0
0 -1.57181e-05 0
0 -1.87061e-05 0
0 -5.38771e-05 0
0 -1.84308e-05 0
0 -3.08341e-05 0
0 -2.91652e-05 0
0 -1.16203e-05 0
0 -1.85667e-05 0
0 -2.00287e-05 0
0 -2.68375e-05 0
0 -2.37799e-05 0
0 -3.16945e-05 0
0 -3.13676e-05 0
0 -3.15313e-05 0
0 -1.90796e-05 0
0 -1.58134e-05 0
0 -1.83326e-05 0
0 -3.16308e-05 0
0 -2.07128e-05 0
0 -2.91276e-05 0
0 -6.03597e-05 0
0 -2.26581e-05 0
0 -2.35174e-05 0
0 -2.33506e-05 0
0 -2.59482e-05 0
0 -1.63393e-05 0
0 -1.78912e-05 0
0 -2.02658e-05 0
0 -5.62379e-05 0
0 -2.04507e-05 0
0 -2.14176e-05 0
0 -2.38895e-05 0
0 -3.05955e-05 0
0 -3.11287e-05 0
0 -2.01544e-05 0
0 -1.92198e-05 0
0 -2.99909e-05 0
0 -6.32085e-05 0
0 -2.04829e-05 0
0 -2.67435e-05 0
0 -2.11611e-05 0
0 -1.83262e-05 0
0 -1.96474e-05 0
0 -2.0699e-05 0
0 -2.83503e-05 0
0 -2.27807e-05 0
0 -2.35234e-05 0
0 -1.93874e-05 0
0 -6.29086e-05 0
0 -2.12117e-05 0
0 -3.22943e-05 0
0 -2.06229e-05 0
0 -2.61501e-05 0
0 -1.90721e-05 0
0 -2.86319e-05 0
0 -2.53212e-05 0
0 -2.07681e-05 0
0 -2.05553e-05 0
0 -1.88077e-05 0
0 -6.92631e-05 0
0 -2.20924e-05 0
0 -2.02457e-05 0
0 -6.16224e-05 0
0 -2.08117e-05 0
0 -2.85397e-05 0
0 -2.08875e-05 0
0 -6.32617e-05 0
0 -1.39008e-05 0
0 -2.0289e-05 0
0 -6.45558e-05 0
0 -2.47785e-05 0
0 -2.35177e-05 0
0 -7.28089e-06 0
0 -2.18143e-05 0
0 -6.93323e-06 0
0 -6.87344e-06 0
0 -8.76768e-06 0
0 -2.48719e-05 0
0 -2.22231e-05 0
0 -1.31068e-05 0
0 -7.69816e-06 0
0 -2.27889e-05 0
0 -5.95166e-06 0
0 -6.55579e-06 0
0 -6.71305e-06 0
0 -2.46468e-05 0
0 -2.27228e-05 0
0 -7.6878e-06 0
0 -6.67903e-06 0
0 -6.10861e-05 0
0 -6.6189e-06 0
0 -6.52665e-06 0
0 -6.87836e-06 0
0 -1.78856e-05 0
0 -1.87072e-05 0
0 -6.73674e-06 0
0 -6.91401e-06 0
0 -1.82903e-05 0
0 -2.2423e-05 0
0 -6.67521e-06 0
0 -7.02401e-06 0
0 -1.78908e-05 0
0 -5.89658e-06 0
0 -1.98938e-05 0
0 -7.3162e-06 0
0 -5.63509e-06 0
0 -1.76631e-05 0
0 -1.42638e-05 0
0 -2.22707e-05 0
0 -1.77204e-05 0
0 -2.11264e-05 0
0 -1.75686e-05 0
0 -1.76047e-05 0
0 -6.69346e-06 0
0 -2.20467e-05 0
0 -1.42479e-05 0
0 -1.76144e-05 0
0 -6.84615e-06 0
0 -6.12404e-06 0
0 -6.50125e-06 0
0 -1.41879e-05 0
0 -1.37476e-05 0
0 -2.11168e-05 0
0 -1.79377e-05 0
0 -1.37282e-05 0
0 -1.41198e-05 0
0 -2.15061e-05 0
0 -6.84475e-06 0
0 -1.74349e-05 0
0 -1.75758e-05 0
0 -6.41828e-06 0
0 -7.20025e-06 0
0 -2.30432e-05 0
0 -6.96894e-06 0
0 -6.44499e-06 0
0 -6.14414e-06 0
0 -2.14766e-05 0
0 -6.00855e-06 0
0 -5.92427e-06 0
0 -5.81567e-06 0
0 -5.02303e-06 0
0 -5.01945e-06 0
0 -4.85271e-06 0
0 -4.87573e-06 0
0 -4.8684e-06 0
0 -5.22951e-06 0
0 -4.84801e-06 0
0 -4.88396e-06 0
0 -4.77612e-06 0
0 -4.81304e-06 0
0 -4.85251e-06 0
0 -4.8555e-06 0
0 -4.82575e-06 0
0 -4.80313e-06 0
0 -4.86923e-06 0
0 -4.85781e-06 0
0 -4.73027e-06 0
0 -1.08748e-05 0
0 -5.22863e-06 0
0 -5.34413e-06 0
0 -5.26459e-06 0
0 -5.05624e-06 0
0 -4.92238e-06 0
0 -5.43253e-06 0
0 -5.43253e-06 0
0 -5.43253e-06 0
0 -5.43253e-06 0
0 -5.43253e-06 0
0 -5.43253e-06 0
0 -5.40321e-06 0
0 -5.40321e-06 0
0 -7.3113e-06 0
0 -6.98147e-06 0
0 -4.8949e-06 0

