# vtk DataFile Version 4.2
vtk output
ASCII
DATASET UNSTRUCTURED_GRID

POINTS 343 double
0.00112265 0.00419491 9.55221e-08
0.00217133 0.00498247 0.00217539
0 0.00419538 0.00112517
0.00193016 0.00195441 0.00194219
0.00516921 0.0024064 0.00503254
0.00517188 0.00382964 0.00639785
0.00762278 0.00477452 0.00499966
0.00622504 0.00484982 0.00369227
0.00683567 0.00328782 0.00691456
0.00499119 0.00499218 0.00500009
0.00417938 0.00111774 0.0099994
0.00528015 0.00207973 0.00790444
0.00418935 -7.85673e-06 0.00831742
0.00201222 0.00200244 0.00803329
0.00428532 0.00253255 0.00999946
0.00695659 0.00644605 0.00694751
0.0064141 0.0061818 0.00518354
0.00226055 0.00218457 0.00514616
0 0.00143586 0.00417514
0.00159464 0.00346613 0.00403705
0.00683744 0.00319315 0.00316211
0.00774507 0.00221197 0.00506469
0 0.00270918 0.00154168
0.00415864 0.00142813 5.10811e-07
0.005008 0.00218734 0.00219841
0.00396291 0.00352646 0.00160341
0.0013453 -6.20714e-07 0.00406004
0.00418331 -8.18014e-06 0.00168859
0.0026269 0.00695158 2.71744e-07
0.0019386 0.00805271 0.00194495
0.00408836 0.00624788 0.00164542
0.00800309 0.00798488 0.007998
0.00796431 0.00481453 0.00802302
0.00838857 0.00607841 0.00594872
0.0100004 0.00882377 0.00419296
0.00757772 0.00763469 0.00496432
0.00856852 0.00997865 0.00416729
0.00797816 0.00797001 0.00201675
0.00353582 0.00303635 0.00695965
0.00443693 0.00366162 0.00832429
0.00389201 0.00160023 0.00596917
0.00500565 0.00766786 0.00767698
0.0019897 0.00800784 0.00798967
0.00282786 0.00999715 0.00712723
0.00391706 0.00839925 0.00595796
0 0.00695361 0.00262895
0.00164664 0.00623923 0.00408792
0 0.0040177 0.00850214
0.00231504 0.00498566 0.00766155
0.00143322 0.00417445 0.00999997
0.00717454 0.00711718 0.00999845
0.00611791 0.00597012 0.00841779
0.00205209 0.0079414 0.00474188
0.0030439 0.0069428 0.00646779
0.001587 0.00607833 0.00592603
0.00998881 0.00578196 0.00831562
0 0.00718191 0.00711644
0.00158485 0.00577341 8.00767e-08
0 0.00577432 0.00158701
0.00999419 0.00715568 0.00711506
0.00286703 0.00334918 0.00999983
0.0099699 0.0014071 0.00417509
0.00803659 0.00194162 0.00197974
0.0083895 0.00350078 0.00399898
0.00372563 0.00164773 0.00412847
0.00150956 0.00999967 0.00581503
0.00280918 -3.78265e-06 0.00712779
0.00610921 0.0041708 0.00837626
0.00999391 0.00724773 0.00419528
0.00852796 -2.36221e-05 0.00416817
0.00334217 0.0028695 3.43981e-07
0.00269972 0.00153869 0.00999984
0.00281821 -4.15908e-06 0.00283213
0.00479771 0.00519374 0.00755446
0.00315829 0.00314614 0.00316747
0 0.00849157 0.00581511
0.00486495 0.00366913 0.00378646
0.00153721 0.00270864 6.20529e-08
0.00579962 0.00831532 0.00999874
0.00598531 0.00998861 0.00850529
0.00421442 0.00999374 0.00831751
0.00401779 0.008498 0.00999916
0.00999928 0.0084651 0.00581402
0.00314782 0.00683344 0.00315098
0 0.00748929 0.00137438
0.00137366 0.00748899 3.19256e-08
0 0.00287343 0.00335182
0 0.00580816 0.00831736
0 0.00429792 0.00253898
0.00253402 0.00429583 2.74993e-07
0.00143383 0.00581916 0.00999997
0.00517558 0.00646818 0.0064003
0.00360329 0.00650923 0.00823396
0.00693132 0.00261208 0.00999872
0.00799854 0.0019385 0.00803467
0.00694168 -1.7552e-05 0.0030824
0.00600066 0.00165172 0.00361312
0.00997557 0.00284561 0.00335199
0 0.00140616 0.00256446
0.00637384 0.00821599 0.00642065
0.00579705 0.00142257 9.37207e-07
0.00602257 0.00354033 0.00160374
0.00315763 0.00999629 0.00582521
0.00856349 0.00997882 0.0058324
0.00255424 0.00140286 3.00996e-07
0.00595 -1.39465e-05 0.0014951
0.00628134 0.00827603 0.00361733
0.00852306 -2.34392e-05 0.00583296
0.0061861 0.00165979 0.00636507
0.00140222 0.00256405 0.01
0.0071127 0.00716692 5.63961e-07
0.00516614 0.00768184 0.00216915
0.00593728 0.00608328 0.00160229
0 0.00686719 0.00578184
0.00996942 0.00137719 0.00256495
0.00177227 0.00360986 0.00640788
0.00999866 0.0084601 0.00262362
0.00840405 0.00616935 0.00413264
0.00598454 0.00998793 0.00149407
0.00694101 -1.72806e-05 0.00692605
0.00997028 0.00140691 0.00581901
0.00837914 0.00355274 0.00606037
0.00150179 -7.97404e-07 0.00581521
0 0.0013659 0.00748679
0.00136361 -6.78177e-07 0.00752891
0.00999257 0.00684089 0.00578084
0.00581674 0.00848062 4.58704e-07
0 0.0075208 0.00859127
0.00136513 0.00748641 0.00999991
0.00423167 0.00820002 0.00362833
0.0085967 0.00997868 0.00751087
0.0100003 0.0086039 0.00752475
0.00575412 0.00157495 0.00999897
0.00724479 0.00417265 0.0099986
0 0.0057735 0.00666667
0.00137045 0.00999961 0.00752893
0 0.00863025 0.00752641
0.00855427 -2.40653e-05 0.00250805
0.00999228 0.00692701 0.00262896
0.00845148 0.00632183 0.00216316
0.00849971 0.00580385 0.00999823
0.00746448 0.00135583 0.00999848
0.00855615 -2.36837e-05 0.00751098
0.00997034 0.00133737 0.00748545
0 0.00143551 0.00581971
0.0059512 -1.35015e-05 0.00850516
0.00419297 -8.24166e-06 0.00340019
0.00792082 0.0046892 0.00203487
0.00998123 0.00427077 0.00253922
0.00423218 0.00999349 0.00666627
0.00283722 0.00999719 0.00283199
0.001307 -6.73988e-07 0.00241834
0 0.00727418 0.00419576
0.0099882 0.00574722 0.00666542
0.00697896 0.00998452 0.00308152
0.00750854 0.00862048 0.00999837
0 0.00574334 0.00336387
0 0.0043297 0.00416652
0.00686161 0.00577077 0.0099987
0.00997694 0.00299477 0.0069141
0.00420551 -8.05146e-06 0.0066666
0.00248067 0.00999758 0.00861143
0.00745991 0.00134674 1.04722e-06
0.00577016 0.00665713 0.0099988
0.00999598 0.00749467 0.00858933
0.00860541 0.00753325 0.00999813
0.00689564 0.00300658 1.03382e-06
0.00335955 0.00574034 4.58913e-07
0.00752766 0.00861317 4.40577e-07
0.007521 0.00998219 0.0013875
0.0057781 0.00685709 5.32476e-07
0.00696887 0.00635675 0.0030335
0.00748247 -2.00285e-05 0.00138857
0.00288017 0.00499704 0.00999974
0.00432513 0.00582842 0.00999926
0.00432092 0.00416127 0.00999934
0.00752225 0.00998278 0.00861469
0.00246455 -3.20862e-06 0.0086116
0.0099873 0.00571674 0.0033638
0 0.00302218 0.00691532
0.00998137 0.00399098 0.00850041
0.00848369 0.00399627 9.49656e-07
0.00997457 0.00268099 0.00154236
0 0.00244495 0.00857025
0.00244596 0.00856809 0.0099996
0.0074839 -1.95468e-05 0.00861451
0.00846493 0.00260248 0.00999823
0.00883474 0.00417191 0.00999814
0.0056762 0.00998927 0.00583287
0.00518538 0.00757547 0.0050322
0.00564832 0.00998921 0.00421501
0.00697818 0.00998487 0.00692571
0.00302053 0.00691326 0.00999952
0.00415782 0.00432443 6.7137e-07
0.00282118 -4.30872e-06 0.00440483
0.00313731 -4.81635e-06 0.00582561
0.00998057 0.00416795 0.00112582
0.00363866 0.00833302 0.00158849
0.00998171 0.00430272 0.00416631
0.0066579 0.00576023 8.1706e-07
0.008595 0.00997829 0.00250695
0 0.00848692 0.00262374
0.00135228 0.00999964 0.00405989
0 0.00885053 0.00419359
0.00419598 0.00884406 4.14815e-07
0.00420969 0.00999328 0.00168789
0.0049903 0.00478414 0.00237919
0.00720514 0.00450577 9.43934e-07
0.00561583 -1.28085e-05 0.00421581
0.00564378 -1.27491e-05 0.0058333
0.00131382 0.00999965 0.00241807
0.00854534 0.00242238 1.05595e-06
0.00998316 0.00449512 0.0072182
0.00712128 0.00998421 0.00499972
0.00572925 0.00335368 0.00999901
0.00244559 -3.35203e-06 0.00135683
0.00997492 0.00241715 0.00856859
0.00239183 0.00478973 0.00499997
0.0058206 0.00431939 9.21274e-07
0.00830653 0.00578815 7.20799e-07
0.0054852 0.00999006 0.00721988
0.00998204 0.00430331 0.00583249
0.00540841 0.00998984 0.00277555
0.00708362 -1.7881e-05 0.00500043
0.00283963 0.0099972 0.00440439
0 0.00452174 0.00721958
0.00451991 0.00721428 0.00999913
0.00545337 -1.19227e-05 0.00721983
0.00359818 0.00507035 0.00359663
0.00425702 0.00999342 0.00500801
0.00422962 -8.22903e-06 0.00500864
0.00366625 0.00521333 0.00617456
0 0.005744 0.00499998
0 0.00433013 0.00583333
0.00499344 0.00573688 7.54047e-07
0.00498075 0.00633207 0.00355391
0.00537648 -1.20969e-05 0.00277648
0.00998768 0.0057176 0.00499933
0.00368808 0.00640427 0.00484391
0.00573531 0.00499082 0.00999895
0.00998713 0.00574751 0.00158742
0 0.00666667 0
0.00858712 0.00749984 4.59468e-07
0.00331644 -6.39339e-06 1.06139e-06
0 0.01 0.00666667
0.00500641 0.00999119 0.00999922
0 0.00288419 0.00499914
0.0099943 0.00746256 0.0013747
0.00999069 0.00663983 4.88391e-07
0 0.005 0.01
0.00498375 0.00287539 7.37364e-07
0 0.005 0
0.00996379 -2.97894e-05 0.00333372
0.0100058 0.00997282 0.00666515
0.00419405 0.0072688 4.88594e-07
0.00997588 0.0028566 0.00499871
0.00497606 -1.14213e-05 1.28089e-06
0 0 0.00666667
0.00379036 0.00361252 0.00522635
0.00497755 -1.08731e-05 0.00999879
0.00996454 -2.95095e-05 0.00666564
0 0 0.005
0.00878591 0.00997732 0.00122019
0.00999967 0.00875277 0.00122026
0.00996413 -2.95969e-05 0.0049997
0.00998378 0.00497271 7.20218e-07
0.00121564 0.00121922 7.0287e-09
0 0.00122008 0.00122008
0 0.00333333 0.01
0 0.00666667 0.01
0.00878077 0.00875769 2.79949e-07
0.0100051 0.00997247 0.00333279
0.00422018 0.00999337 0.00339956
0.00999274 0.00664065 0.00999792
0 0.00333333 0
0 0.00122008 0.00877992
0.00121482 -8.62714e-07 0.0087797
0.00121603 0.0012195 0.0100001
0.00878734 0.00997787 0.00877834
0.00122 0.00877943 0.0099999
0 0.00877992 0.00877992
0.0100013 0.00875348 0.00877797
0.00667324 0.0099852 9.66673e-08
0.00996834 0.00119076 0.001221
0.00122105 0.00999944 0.00878012
0.0087828 0.00875842 0.00999814
0.00998579 0.00497362 0.00999795
0 0 0.00333333
0.00663668 -1.70034e-05 1.48477e-06
0.00874499 -2.50945e-05 0.00122137
0.00120597 -8.87593e-07 0.00121212
0 0.00877992 0.00122008
0.00122016 0.0087794 1.15374e-07
0.0012125 0.00999949 0.00121144
0.00996996 0.00119136 0.00877806
0.00875177 0.00119625 0.00999806
0.00663864 -1.64634e-05 0.00999821
0.00874969 0.00119562 1.17813e-06
0.00874663 -2.45701e-05 0.00877807
0.00997695 0.00330538 9.0016e-07
0.00333808 0.00999532 0.00999982
0.0024623 0.00999775 0.00135641
0.00667468 0.00998586 0.00999888
0.00997889 0.00330631 0.00999794
0 0.01 0.005
0.00262458 0.00848455 2.87465e-07
0.0100054 0.00997265 0.00499904
0 0.01 0.00333333
0 0.00166667 0
0.00996347 -3.00525e-05 0.00166765
0 0.00166667 0.01
0 0.00833333 0
0.00999769 0.00830619 2.50357e-07
0.00996492 -2.95837e-05 0.00833148
0.0100048 0.00997226 0.00166661
0.0100062 0.00997285 0.0083315
0.00166899 0.00999844 0.00999997
0 0.01 0.00833333
0.00833952 0.00997889 1.3018e-07
0.00829921 -2.3624e-05 1.4071e-06
0.0083013 -2.30654e-05 0.00999791
0.00834123 0.00997943 0.00999836
0 0 0.00833333
0.00999975 0.00830702 0.00999788
0.00165789 -2.21756e-06 3.22272e-07
0 0 0.00166667
0.00333833 0.00999552 2.43216e-07
0.00997205 0.00163813 0.00999787
0.00997003 0.00163747 1.03307e-06
0.00165875 -1.82458e-06 0.01
0.00166896 0.00999876 1.19351e-07
0 0.01 0.00166667
0.0100067 0.00997285 0.00999797
0 0 0.01
0.0100046 0.00997209 -3.14839e-08
0.00996525 -2.96865e-05 0.00999757
0 0.01 0.01
0.00996316 -3.0285e-05 1.30011e-06
0 0.01 0
0 0 0
0.00500605 0.00999069 2.04953e-07
0.00331758 -5.73645e-06 0.00999927
0 0.00833333 0.01

CELLS 343 686
1 0
1 1
1 2
1 3
1 4
1 5
1 6
1 7
1 8
1 9
1 10
1 11
1 12
1 13
1 14
1 15
1 16
1 17
1 18
1 19
1 20
1 21
1 22
1 23
1 24
1 25
1 26
1 27
1 28
1 29
1 30
1 31
1 32
1 33
1 34
1 35
1 36
1 37
1 38
1 39
1 40
1 41
1 42
1 43
1 44
1 45
1 46
1 47
1 48
1 49
1 50
1 51
1 52
1 53
1 54
1 55
1 56
1 57
1 58
1 59
1 60
1 61
1 62
1 63
1 64
1 65
1 66
1 67
1 68
1 69
1 70
1 71
1 72
1 73
1 74
1 75
1 76
1 77
1 78
1 79
1 80
1 81
1 82
1 83
1 84
1 85
1 86
1 87
1 88
1 89
1 90
1 91
1 92
1 93
1 94
1 95
1 96
1 97
1 98
1 99
1 100
1 101
1 102
1 103
1 104
1 105
1 106
1 107
1 108
1 109
1 110
1 111
1 112
1 113
1 114
1 115
1 116
1 117
1 118
1 119
1 120
1 121
1 122
1 123
1 124
1 125
1 126
1 127
1 128
1 129
1 130
1 131
1 132
1 133
1 134
1 135
1 136
1 137
1 138
1 139
1 140
1 141
1 142
1 143
1 144
1 145
1 146
1 147
1 148
1 149
1 150
1 151
1 152
1 153
1 154
1 155
1 156
1 157
1 158
1 159
1 160
1 161
1 162
1 163
1 164
1 165
1 166
1 167
1 168
1 169
1 170
1 171
1 172
1 173
1 174
1 175
1 176
1 177
1 178
1 179
1 180
1 181
1 182
1 183
1 184
1 185
1 186
1 187
1 188
1 189
1 190
1 191
1 192
1 193
1 194
1 195
1 196
1 197
1 198
1 199
1 200
1 201
1 202
1 203
1 204
1 205
1 206
1 207
1 208
1 209
1 210
1 211
1 212
1 213
1 214
1 215
1 216
1 217
1 218
1 219
1 220
1 221
1 222
1 223
1 224
1 225
1 226
1 227
1 228
1 229
1 230
1 231
1 232
1 233
1 234
1 235
1 236
1 237
1 238
1 239
1 240
1 241
1 242
1 243
1 244
1 245
1 246
1 247
1 248
1 249
1 250
1 251
1 252
1 253
1 254
1 255
1 256
1 257
1 258
1 259
1 260
1 261
1 262
1 263
1 264
1 265
1 266
1 267
1 268
1 269
1 270
1 271
1 272
1 273
1 274
1 275
1 276
1 277
1 278
1 279
1 280
1 281
1 282
1 283
1 284
1 285
1 286
1 287
1 288
1 289
1 290
1 291
1 292
1 293
1 294
1 295
1 296
1 297
1 298
1 299
1 300
1 301
1 302
1 303
1 304
1 305
1 306
1 307
1 308
1 309
1 310
1 311
1 312
1 313
1 314
1 315
1 316
1 317
1 318
1 319
1 320
1 321
1 322
1 323
1 324
1 325
1 326
1 327
1 328
1 329
1 330
1 331
1 332
1 333
1 334
1 335
1 336
1 337
1 338
1 339
1 340
1 341
1 342

CELL_TYPES 343
1
1
1
1
1
1
1
1
1
1
1
1
1
1
1
1
1
1
1
1
1
1
1
1
1
1
1
1
1
1
1
1
1
1
1
1
1
1
1
1
1
1
1
1
1
1
1
1
1
1
1
1
1
1
1
1
1
1
1
1
1
1
1
1
1
1
1
1
1
1
1
1
1
1
1
1
1
1
1
1
1
1
1
1
1
1
1
1
1
1
1
1
1
1
1
1
1
1
1
1
1
1
1
1
1
1
1
1
1
1
1
1
1
1
1
1
1
1
1
1
1
1
1
1
1
1
1
1
1
1
1
1
1
1
1
1
1
1
1
1
1
1
1
1
1
1
1
1
1
1
1
1
1
1
1
1
1
1
1
1
1
1
1
1
1
1
1
1
1
1
1
1
1
1
1
1
1
1
1
1
1
1
1
1
1
1
1
1
1
1
1
1
1
1
1
1
1
1
1
1
1
1
1
1
1
1
1
1
1
1
1
1
1
1
1
1
1
1
1
1
1
1
1
1
1
1
1
1
1
1
1
1
1
1
1
1
1
1
1
1
1
1
1
1
1
1
1
1
1
1
1
1
1
1
1
1
1
1
1
1
1
1
1
1
1
1
1
1
1
1
1
1
1
1
1
1
1
1
1
1
1
1
1
1
1
1
1
1
1
1
1
1
1
1
1
1
1
1
1
1
1
1
1
1
1
1
1
1
1
1
1
1
1
1
1
1
1
1
1
1
1
1
1
1
1
1
1
1
1
1
1
1
1
1
1
1
1
1
1
1
1
1
1

POINT_DATA 343
FIELD FieldData 3

ExternalForceID_(#) 1 343 int
0
1
2
3
4
5
6
7
8
9
10
11
12
13
14
15
16
17
18
19
20
21
22
23
24
25
26
27
28
29
30
31
32
33
34
35
36
37
38
39
40
41
42
43
44
45
46
47
48
49
50
51
52
53
54
55
56
57
58
59
60
61
62
63
64
65
66
67
68
69
70
71
72
73
74
75
76
77
78
79
80
81
82
83
84
85
86
87
88
89
90
91
92
93
94
95
96
97
98
99
100
101
102
103
104
105
106
107
108
109
110
111
112
113
114
115
116
117
118
119
120
121
122
123
124
125
126
127
128
129
130
131
132
133
134
135
136
137
138
139
140
141
142
143
144
145
146
147
148
149
150
151
152
153
154
155
156
157
158
159
160
161
162
163
164
165
166
167
168
169
170
171
172
173
174
175
176
177
178
179
180
181
182
183
184
185
186
187
188
189
190
191
192
193
194
195
196
197
198
199
200
201
202
203
204
205
206
207
208
209
210
211
212
213
214
215
216
217
218
219
220
221
222
223
224
225
226
227
228
229
230
231
232
233
234
235
236
237
238
239
240
241
242
243
244
245
246
247
248
249
250
251
252
253
254
255
256
257
258
259
260
261
262
263
264
265
266
267
268
269
270
271
272
273
274
275
276
277
278
279
280
281
282
283
284
285
286
287
288
289
290
291
292
293
294
295
296
297
298
299
300
301
302
303
304
305
306
307
308
309
310
311
312
313
314
315
316
317
318
319
320
321
322
323
324
325
326
327
328
329
330
331
332
333
334
335
336
337
338
339
340
341
342

ExternalForceType_(0/1/2/3/4) 1 343 int
0
0
0
0
0
0
0
0
0
0
0
0
0
0
0
0
0
0
0
0
0
0
0
0
0
0
0
0
0
0
0
0
0
0
0
0
0
0
0
0
0
0
0
0
0
0
0
0
0
0
0
0
0
0
0
0
0
0
0
0
0
0
0
0
0
0
0
0
0
0
0
0
0
0
0
0
0
0
0
0
0
0
0
0
0
0
0
0
0
0
0
0
0
0
0
0
0
0
0
0
0
0
0
0
0
0
0
0
0
0
0
0
0
0
0
0
0
0
0
0
0
0
0
0
0
0
0
0
0
0
0
0
0
0
0
0
0
0
0
0
0
0
0
0
0
0
0
0
0
0
0
0
0
0
0
0
0
0
0
0
0
0
0
0
0
0
0
0
0
0
0
0
0
0
0
0
0
0
0
0
0
0
0
0
0
0
0
0
0
0
0
0
0
0
0
0
0
0
0
0
0
0
0
0
0
0
0
0
0
0
0
0
0
0
0
0
0
0
0
0
0
0
0
0
0
0
0
0
0
0
0
0
0
0
0
0
0
0
0
0
0
0
0
0
0
0
0
0
0
0
0
0
0
0
0
0
0
0
0
0
0
0
0
0
0
0
0
0
0
0
0
0
0
0
0
0
0
0
0
0
0
0
0
0
0
0
0
0
0
0
0
0
0
0
0
0
0
0
0
0
0
0
0
0
0
0
0
0
0
0
0
0
0
0
0
0
0
0
0
0
0
0
0
0
0
0
0
0
0
0
0
0
0
0
0
0
0
0
0
0
0
0
0

ExternalForce_(N) 3 343 double
0 -3.09568e-05 0
0 -0.000138619 0
0 -2.16714e-05 0
0 -0.000168226 0
0 -8.26002e-05 0
0 -8.9203e-05 0
0 -9.74165e-05 0
0 -7.37906e-05 0
0 -6.68156e-05 0
0 -5.47617e-05 0
0 -3.04981e-05 0
0 -0.000105531 0
0 -4.77758e-05 0
0 -0.000161821 0
0 -2.96713e-05 0
0 -7.9067e-05 0
0 -6.57564e-05 0
0 -0.000106704 0
0 -4.11017e-05 0
0 -8.006e-05 0
0 -6.02474e-05 0
0 -0.000115662 0
0 -2.18875e-05 0
0 -4.17098e-05 0
0 -0.000107827 0
0 -7.27379e-05 0
0 -4.13856e-05 0
0 -3.85027e-05 0
0 -3.029e-05 0
0 -0.000128774 0
0 -7.57947e-05 0
0 -0.000162261 0
0 -0.000116775 0
0 -7.15802e-05 0
0 -3.74431e-05 0
0 -0.000108892 0
0 -3.74072e-05 0
0 -0.000136493 0
0 -6.25303e-05 0
0 -7.85756e-05 0
0 -7.52544e-05 0
0 -0.000116589 0
0 -0.000160874 0
0 -2.73339e-05 0
0 -8.7662e-05 0
0 -2.53184e-05 0
0 -7.42972e-05 0
0 -4.15199e-05 0
0 -0.000128792 0
0 -3.72945e-05 0
0 -2.72189e-05 0
0 -7.03157e-05 0
0 -0.000119003 0
0 -5.02041e-05 0
0 -8.04153e-05 0
0 -4.4939e-05 0
0 -2.74192e-05 0
0 -3.19929e-05 0
0 -4.04607e-05 0
0 -2.07889e-05 0
0 -3.28809e-05 0
0 -3.54797e-05 0
0 -0.000153858 0
0 -7.19739e-05 0
0 -8.09026e-05 0
0 -4.90862e-05 0
0 -2.77255e-05 0
0 -7.06591e-05 0
0 -3.20606e-05 0
0 -4.10794e-05 0
0 -1.98932e-05 0
0 -2.37551e-05 0
0 -3.0591e-05 0
0 -5.86107e-05 0
0 -5.75946e-05 0
0 -4.01595e-05 0
0 -5.35099e-05 0
0 -2.24477e-05 0
0 -4.41213e-05 0
0 -4.29866e-05 0
0 -4.42325e-05 0
0 -4.30889e-05 0
0 -4.19155e-05 0
0 -5.21923e-05 0
0 -1.5029e-05 0
0 -2.34331e-05 0
0 -1.9903e-05 0
0 -4.30461e-05 0
0 -3.11931e-05 0
0 -3.08326e-05 0
0 -4.52797e-05 0
0 -5.7648e-05 0
0 -8.02544e-05 0
0 -2.43623e-05 0
0 -0.000150893 0
0 -3.43039e-05 0
0 -7.21258e-05 0
0 -1.97489e-05 0
0 -2.00202e-05 0
0 -7.83017e-05 0
0 -4.32908e-05 0
0 -7.00326e-05 0
0 -1.17841e-05 0
0 -4.93779e-05 0
0 -1.58193e-05 0
0 -4.04762e-05 0
0 -8.57147e-05 0
0 -4.2953e-05 0
0 -7.82027e-05 0
0 -2.09499e-05 0
0 -3.31713e-05 0
0 -9.30599e-05 0
0 -7.26197e-05 0
0 -1.76801e-05 0
0 -2.06228e-05 0
0 -7.8371e-05 0
0 -1.84411e-05 0
0 -7.30662e-05 0
0 -4.11806e-05 0
0 -2.3265e-05 0
0 -4.23503e-05 0
0 -5.94919e-05 0
0 -4.22718e-05 0
0 -2.12723e-05 0
0 -1.86252e-05 0
0 -1.77849e-05 0
0 -3.82356e-05 0
0 -2.39658e-05 0
0 -1.62481e-05 0
0 -7.86148e-05 0
0 -1.61387e-05 0
0 -2.34763e-05 0
0 -2.95637e-05 0
0 -2.93742e-05 0
0 -1.33947e-05 0
0 -1.83735e-05 0
0 -2.05639e-05 0
0 -1.91062e-05 0
0 -1.84053e-05 0
0 -6.25793e-05 0
0 -4.49914e-05 0
0 -1.98914e-05 0
0 -1.58922e-05 0
0 -2.367e-05 0
0 -3.81266e-05 0
0 -4.36518e-05 0
0 -2.25472e-05 0
0 -0.000115119 0
0 -3.05886e-05 0
0 -1.32828e-05 0
0 -3.38507e-05 0
0 -1.78391e-05 0
0 -2.88237e-05 0
0 -1.34771e-05 0
0 -2.36876e-05 0
0 -2.06453e-05 0
0 -2.58912e-05 0
0 -2.10097e-05 0
0 -1.7602e-05 0
0 -3.13896e-05 0
0 -1.34386e-05 0
0 -2.38863e-05 0
0 -2.04203e-05 0
0 -1.33426e-05 0
0 -2.13076e-05 0
0 -1.86316e-05 0
0 -3.10974e-05 0
0 -2.56228e-05 0
0 -2.33161e-05 0
0 -1.57181e-05 0
0 -1.87061e-05 0
0 -5.38771e-05 0
0 -1.84308e-05 0
0 -3.08341e-05 0
0 -2.91652e-05 0
0 -1.16203e-05 0
0 -1.85667e-05 0
0 -2.00287e-05 0
0 -2.68375e-05 0
0 -2.37799e-05 0
0 -3.16945e-05 0
0 -3.13676e-05 0
0 -3.15313e-05 0
0 -1.90796e-05 0
0 -1.58134e-05 0
0 -1.83326e-05 0
0 -3.16308e-05 0
0 -2.07128e-05 0
0 -2.91276e-05 0
0 -6.03597e-05 0
0 -2.26581e-05 0
0 -2.35174e-05 0
0 -2.33506e-05 0
0 -2.59482e-05 0
0 -1.63393e-05 0
0 -1.78912e-05 0
0 -2.02658e-05 0
0 -5.62379e-05 0
0 -2.04507e-05 0
0 -2.14176e-05 0
0 -2.38895e-05 0
0 -3.05955e-05 0
0 -3.11287e-05 0
0 -2.01544e-05 0
0 -1.92198e-05 0
0 -2.99909e-05 0
0 -6.32085e-05 0
0 -2.04829e-05 0
0 -2.67435e-05 0
0 -2.11611e-05 0
0 -1.83262e-05 0
0 -1.96474e-05 0
0 -2.0699e-05 0
0 -2.83503e-05 0
0 -2.27807e-05 0
0 -2.35234e-05 0
0 -1.93874e-05 0
0 -6.29086e-05 0
0 -2.12117e-05 0
0 -3.22943e-05 0
0 -2.06229e-05 0
0 -2.61501e-05 0
0 -1.90721e-05 0
0 -2.86319e-05 0
0 -2.53212e-05 0
0 -2.07681e-05 0
0 -2.05553e-05 0
0 -1.88077e-05 0
0 -6.92631e-05 0
0 -2.20924e-05 0
0 -2.02457e-05 0
0 -6.16224e-05 0
0 -2.08117e-05 0
0 -2.85397e-05 0
0 -2.08875e-05 0
0 -6.32617e-05 0
0 -1.39008e-05 0
0 -2.0289e-05 0
0 -6.45558e-05 0
0 -2.47785e-05 0
0 -2.35177e-05 0
0 -7.28089e-06 0
0 -2.18143e-05 0
0 -6.93323e-06 0
0 -6.87344e-06 0
0 -8.76768e-06 0
0 -2.48719e-05 0
0 -2.22231e-05 0
0 -1.31068e-05 0
0 -7.69816e-06 0
0 -2.27889e-05 0
0 -5.95166e-06 0
0 -6.55579e-06 0
0 -6.71305e-06 0
0 -2.46468e-05 0
0 -2.27228e-05 0
0 -7.6878e-06 0
0 -6.67903e-06 0
0 -6.10861e-05 0
0 -6.6189e-06 0
0 -6.52665e-06 0
0 -6.87836e-06 0
0 -1.78856e-05 0
0 -1.87072e-05 0
0 -6.73674e-06 0
0 -6.91401e-06 0
0 -1.82903e-05 0
0 -2.2423e-05 0
0 -6.67521e-06 0
0 -7.02401e-06 0
0 -1.78908e-05 0
0 -5.89658e-06 0
0 -1.98938e-05 0
0 -7.3162e-06 0
0 -5.63509e-06 0
0 -1.76631e-05 0
0 -1.42638e-05 0
0 -2.22707e-05 0
0 -1.77204e-05 0
0 -2.11264e-05 0
0 -1.75686e-05 0
0 -1.76047e-05 0
0 -6.69346e-06 0
0 -2.20467e-05 0
0 -1.42479e-05 0
0 -1.76144e-05 0
0 -6.84615e-06 0
0 -6.12404e-06 0
0 -6.50125e-06 0
0 -1.41879e-05 0
0 -1.37476e-05 0
0 -2.11168e-05 0
0 -1.79377e-05 0
0 -1.37282e-05 0
0 -1.41198e-05 0
0 -2.15061e-05 0
0 -6.84475e-06 0
0 -1.74349e-05 0
0 -1.75758e-05 0
0 -6.41828e-06 0
0 -7.20025e-06 0
0 -2.30432e-05 0
0 -6.96894e-06 0
0 -6.44499e-06 0
0 -6.14414e-06 0
0 -2.14766e-05 0
0 -6.00855e-06 0
0 -5.92427e-06 0
0 -5.81567e-06 0
0 -5.02303e-06 0
0 -5.01945e-06 0
0 -4.85271e-06 0
0 -4.87573e-06 0
0 -4.8684e-06 0
0 -5.22951e-06 0
0 -4.84801e-06 0
0 -4.88396e-06 0
0 -4.77612e-06 0
0 -4.81304e-06 0
0 -4.85251e-06 0
0 -4.8555e-06 0
0 -4.82575e-06 0
0 -4.80313e-06 0
0 -4.86923e-06 0
0 -4.85781e-06 0
0 -4.73027e-06 0
0 -1.08748e-05 0
0 -5.22863e-06 0
0 -5.34413e-06 0
0 -5.26459e-06 0
0 -5.05624e-06 0
0 -4.92238e-06 0
0 -5.43253e-06 0
0 -5.43253e-06 0
0 -5.43253e-06 0
0 -5.43253e-06 0
0 -5.43253e-06 0
0 -5.43253e-06 0
0 -5.40321e-06 0
0 -5.40321e-06 0
0 -7.3113e-06 0
0 -6.98147e-06 0
0 -4.8949e-06 0

