# vtk DataFile Version 4.2
vtk output
ASCII
DATASET UNSTRUCTURED_GRID

POINTS 343 double
0.00112255 0.00419491 8.81925e-08
0.0021712 0.00498248 0.00217536
0 0.00419538 0.00112517
0.00193009 0.00195443 0.00194216
0.00516944 0.0024066 0.00503221
0.00517225 0.00382979 0.00639749
0.00762283 0.00477487 0.00499882
0.00622481 0.00485003 0.00369174
0.00683628 0.00328815 0.00691385
0.00499123 0.00499229 0.00499979
0.00418028 0.00111794 0.00999905
0.00528091 0.00207998 0.00790398
0.00419011 -7.62343e-06 0.00831711
0.00201238 0.00200245 0.00803325
0.00428615 0.00253269 0.00999908
0.00695692 0.00644631 0.00694677
0.00641406 0.00618201 0.00518297
0.0022606 0.00218459 0.00514611
0 0.00143586 0.00417514
0.00159462 0.00346613 0.00403703
0.00683724 0.00319347 0.00316145
0.00774541 0.00221244 0.00506381
0 0.00270918 0.00154168
0.00415822 0.00142832 2.04507e-07
0.0050078 0.00218755 0.00219801
0.00396258 0.00352655 0.00160315
0.00134535 -6.10037e-07 0.00406002
0.00418324 -7.98192e-06 0.0016883
0.00262644 0.00695159 1.55741e-07
0.00193845 0.00805271 0.00194492
0.00408791 0.00624792 0.00164514
0.0080035 0.00798527 0.00799697
0.00796508 0.00481492 0.00802201
0.00838868 0.00607883 0.00594767
0.00999971 0.0088244 0.00419153
0.00757745 0.00763502 0.00496349
0.00856774 0.00997916 0.00416622
0.00797713 0.00797039 0.00201579
0.00353608 0.00303642 0.00695949
0.00443749 0.00366171 0.00832393
0.00389232 0.00160037 0.00596901
0.00500594 0.007668 0.00767657
0.00198981 0.00800785 0.00798963
0.00282786 0.00999721 0.00712713
0.00391702 0.00839933 0.00595778
0 0.00695361 0.00262895
0.0016466 0.00623924 0.00408789
0 0.0040177 0.00850214
0.00231516 0.00498567 0.0076615
0.00143337 0.00417446 0.00999994
0.00717541 0.00711748 0.00999753
0.00611851 0.00597031 0.00841714
0.00205206 0.00794139 0.00474184
0.00304396 0.00694282 0.00646769
0.00158702 0.00607833 0.00592601
0.00998949 0.00578258 0.00831411
0 0.00718191 0.00711644
0.00158466 0.00577342 5.06344e-08
0 0.00577432 0.00158701
0.00999442 0.00715629 0.00711358
0.00286755 0.00334922 0.00999965
0.0099701 0.00140787 0.00417366
0.00803622 0.00194213 0.00197878
0.00838943 0.00350126 0.00399795
0.00372576 0.00164786 0.00412833
0.00150953 0.00999967 0.00581501
0.00280953 -3.67021e-06 0.0071277
0.00610997 0.00417102 0.00837562
0.00999339 0.00724834 0.00419385
0.00852836 -2.29713e-05 0.0041671
0.0033417 0.00286956 1.50937e-07
0.00270029 0.00153877 0.00999968
0.00281833 -4.05707e-06 0.00283204
0.00479812 0.00519383 0.00755409
0.00315824 0.00314619 0.00316737
0 0.00849157 0.00581511
0.00486489 0.00366926 0.00378616
0.00153706 0.00270865 3.97251e-08
0.00580032 0.00831554 0.00999809
0.00598559 0.00998888 0.00850464
0.00421463 0.00999386 0.00831718
0.00401829 0.00849812 0.00999882
0.00999902 0.00846572 0.00581257
0.00314766 0.00683345 0.00315088
0 0.00748929 0.00137438
0.0013735 0.00748898 2.00893e-08
0 0.00287343 0.00335182
0 0.00580816 0.00831736
0 0.00429792 0.00253898
0.00253362 0.00429585 1.6866e-07
0.001434 0.00581916 0.00999995
0.00517575 0.0064683 0.00639993
0.00360362 0.00650926 0.00823373
0.00693261 0.00261247 0.00999787
0.00799963 0.00193902 0.00803367
0.00694179 -1.70837e-05 0.0030817
0.00600072 0.00165203 0.00361262
0.00997538 0.00284632 0.00335056
0 0.00140616 0.00256446
0.00637389 0.00821624 0.00642006
0.00579648 0.00142289 3.59032e-07
0.0060221 0.00354058 0.00160315
0.00315753 0.00999638 0.0058251
0.00856314 0.00997935 0.00583131
0.00255395 0.00140293 1.81624e-07
0.00594984 -1.35817e-05 0.00149451
0.0062808 0.00827627 0.00361678
0.00852386 -2.27886e-05 0.00583189
0.00618673 0.00166012 0.00636452
0.00140237 0.00256405 0.01
0.00711143 0.0071672 -2.94705e-07
0.0051655 0.00768197 0.00216874
0.00593655 0.00608343 0.00160171
0 0.00686719 0.00578184
0.00996922 0.00137796 0.00256352
0.00177233 0.00360986 0.00640785
0.0099976 0.00846073 0.00262217
0.00840371 0.00616977 0.00413162
0.00598347 0.0099882 0.00149347
0.00694198 -1.67927e-05 0.00692534
0.00997089 0.00140769 0.00581757
0.00837958 0.00355321 0.00605931
0.00150188 -7.78324e-07 0.00581519
0 0.0013659 0.00748679
0.00136373 -6.53514e-07 0.00752891
0.0099925 0.0068415 0.00577939
0.00581553 0.00848082 -1.55218e-07
0 0.0075208 0.00859127
0.00136528 0.00748643 0.00999988
0.00423135 0.00820011 0.00362813
0.00859676 0.00997922 0.00750972
0.0100005 0.00860452 0.00752325
0.00575537 0.00157526 0.00999834
0.00724597 0.00417298 0.00999767
0 0.0057735 0.00666667
0.00137048 0.00999961 0.00752892
0 0.00863025 0.00752641
0.00855426 -2.34029e-05 0.00250696
0.0099914 0.0069276 0.00262752
0.00845063 0.00632224 0.0021621
0.00850082 0.0058043 0.00999704
0.00746596 0.00135633 0.00999752
0.00855736 -2.30097e-05 0.00750988
0.00997137 0.00133816 0.00748398
0 0.00143551 0.00581971
0.00595235 -1.31132e-05 0.00850456
0.00419314 -8.02748e-06 0.00339997
0.00792016 0.0046896 0.00203394
0.00998066 0.00427143 0.0025378
0.00423214 0.00999363 0.00666602
0.00283692 0.00999725 0.0028319
0.001307 -6.66476e-07 0.00241833
0 0.00727418 0.00419576
0.00998849 0.00574784 0.00666396
0.00697807 0.00998488 0.0030808
0.00750929 0.00862087 0.00999737
0 0.00574334 0.00336387
0 0.0043297 0.00416652
0.0068626 0.00577104 0.00999785
0.00997763 0.00299546 0.00691264
0.00420608 -7.81781e-06 0.00666637
0.0024808 0.00999762 0.00861132
0.00745924 0.00134723 1.33527e-07
0.00577096 0.0066573 0.00999815
0.00999653 0.00749529 0.00858782
0.00860633 0.00753372 0.00999691
0.00689484 0.00300693 2.31243e-07
0.00335898 0.00574035 2.51255e-07
0.00752619 0.00861351 -5.17566e-07
0.00751969 0.0099826 0.00138658
0.00577705 0.00685725 -7.71721e-08
0.00696831 0.006357 0.0030328
0.00748223 -1.94852e-05 0.00138769
0.00288064 0.00499708 0.00999955
0.00432584 0.0058285 0.00999885
0.00432168 0.00416136 0.00999893
0.00752258 0.0099832 0.00861372
0.00246497 -3.09865e-06 0.00861151
0.00998676 0.00571736 0.00336238
0 0.00302218 0.00691532
0.00998232 0.00399164 0.00849891
0.00848261 0.00399676 -1.91538e-07
0.00997394 0.00268171 0.00154093
0 0.00244495 0.00857025
0.00244629 0.00856814 0.00999945
0.00748527 -1.89774e-05 0.00861361
0.00846641 0.00260302 0.00999706
0.00883605 0.00417243 0.00999688
0.00567603 0.00998952 0.00583243
0.00518525 0.00757561 0.00503185
0.00564783 0.00998946 0.00421459
0.00697815 0.00998523 0.00692498
0.00302098 0.00691327 0.00999931
0.00415717 0.0043245 3.35209e-07
0.00282138 -4.19213e-06 0.00440475
0.00313763 -4.67974e-06 0.00582552
0.00997967 0.00416862 0.00112438
0.00363818 0.00833308 0.00158826
0.00998154 0.00430337 0.00416487
0.00665683 0.00576046 4.95049e-08
0.00859381 0.00997881 0.00250585
0 0.00848692 0.00262374
0.00135223 0.00999965 0.00405987
0 0.00885053 0.00419359
0.00419511 0.00884417 6.04261e-08
0.00420899 0.00999343 0.0016876
0.00498992 0.00478424 0.00237882
0.00720415 0.0045061 7.65831e-08
0.00561614 -1.24635e-05 0.0042154
0.0056444 -1.23962e-05 0.00583288
0.00131372 0.00999967 0.00241806
0.00854443 0.00242293 -9.19125e-08
0.00998374 0.00449576 0.00721673
0.0071208 0.00998458 0.00499898
0.00573031 0.00335391 0.00999838
0.00244557 -3.28533e-06 0.00135675
0.00997608 0.00241789 0.00856709
0.00239183 0.00478974 0.00499991
0.00581978 0.00431959 3.03028e-07
0.00830525 0.00578855 -4.0036e-07
0.00548524 0.00999028 0.00721941
0.00998229 0.00430396 0.00583104
0.00540768 0.00999007 0.00277513
0.00708417 -1.73945e-05 0.0049997
0.00283943 0.00999726 0.00440432
0 0.00452174 0.00721958
0.00452055 0.00721439 0.0099987
0.00545421 -1.15877e-05 0.00721939
0.00359807 0.00507038 0.0035965
0.00425675 0.00999357 0.0050078
0.00422999 -8.00021e-06 0.00500846
0.00366636 0.00521337 0.0061744
0 0.005744 0.00499998
0 0.00433013 0.00583333
0.0049926 0.00573695 2.719e-07
0.00498047 0.00633216 0.0035536
0.00537655 -1.1781e-05 0.00277606
0.00998755 0.00571821 0.00499789
0.00368803 0.0064043 0.00484378
0.00573623 0.00499099 0.0099983
0.00998614 0.00574813 0.00158598
0 0.00666667 0
0.00858561 0.00750028 -7.25228e-07
0.00331618 -6.2004e-06 8.12947e-07
0 0.01 0.00666667
0.00500694 0.00999141 0.00999868
0 0.00288419 0.00499914
0.00999305 0.00746315 0.00137324
0.00998921 0.00664043 -1.0261e-06
0 0.005 0.01
0.00498314 0.00287557 2.84666e-07
0 0.005 0
0.00996398 -2.8933e-05 0.0033323
0.0100056 0.00997352 0.00666369
0.00419327 0.00726887 1.36257e-07
0.00997612 0.0028573 0.00499726
0.00497568 -1.10986e-05 7.98995e-07
0 0 0.00666667
0.00379047 0.00361258 0.00522621
0.00497872 -1.0575e-05 0.00999829
0.00996555 -2.86577e-05 0.0066642
0 0 0.005
0.0087844 0.00997785 0.00121899
0.00999822 0.00875339 0.00121879
0.00996473 -2.87472e-05 0.00499827
0.00998251 0.00497333 -7.86525e-07
0.00121555 0.00121924 -7.82778e-09
0 0.00122008 0.00122008
0 0.00333333 0.01
0 0.00666667 0.01
0.00877911 0.00875816 -9.47056e-07
0.0100041 0.00997315 0.00333135
0.00421971 0.00999352 0.00339935
0.00999373 0.00664127 0.00999636
0 0.00333333 0
0 0.00122008 0.00877992
0.00121496 -8.32229e-07 0.00877968
0.00121617 0.00121951 0.0100001
0.00878769 0.00997843 0.00877708
0.00122012 0.00877945 0.00999987
0 0.00877992 0.00877992
0.0100018 0.00875412 0.00877644
0.00667176 0.00998553 -6.82724e-07
0.00996783 0.00119156 0.00121956
0.00122111 0.00999945 0.00878009
0.00878358 0.00875895 0.00999687
0.00998699 0.00497427 0.00999639
0 0 0.00333333
0.0066362 -1.6521e-05 7.01314e-07
0.00874467 -2.43907e-05 0.0012202
0.00120595 -8.7122e-07 0.00121209
0 0.00877992 0.00122008
0.00122 0.00877939 9.9589e-08
0.00121237 0.0099995 0.00121141
0.00997133 0.00119216 0.00877656
0.00875343 0.0011969 0.00999683
0.00664017 -1.6014e-05 0.00999741
0.00874893 0.00119627 -1.58225e-08
0.00874815 -2.38621e-05 0.00877688
0.00997588 0.00330607 -5.89616e-07
0.00333846 0.00999545 0.00999953
0.00246192 0.00999781 0.00135632
0.00667527 0.00998624 0.00999801
0.0099803 0.00330699 0.00999639
0 0.01 0.005
0.00262407 0.00848457 1.59576e-07
0.0100048 0.00997335 0.00499759
0 0.01 0.00333333
0 0.00166667 0
0.00996323 -2.91892e-05 0.00166621
0 0.00166667 0.01
0 0.00833333 0
0.00999601 0.0083068 -1.25595e-06
0.00996633 -2.8721e-05 0.00833
0.0100034 0.00997294 0.00166514
0.0100064 0.00997355 0.00832996
0.00166913 0.00999849 0.00999988
0 0.01 0.00833333
0.00833779 0.00997938 -1.00305e-06
0.00829862 -2.29533e-05 2.90478e-07
0.00830306 -2.24053e-05 0.00999677
0.00834187 0.00997998 0.00999715
0 0 0.00833333
0.0100005 0.00830766 0.00999631
0.00165781 -2.15734e-06 2.56159e-07
0 0 0.00166667
0.00333758 0.00999561 1.79756e-08
0.00997366 0.00163892 0.00999633
0.00996917 0.00163825 -4.48411e-07
0.00165905 -1.76785e-06 0.00999997
0.00166866 0.00999878 6.12205e-08
0 0.01 0.00166667
0.0100072 0.00997358 0.00999638
0 0 0.01
0.0100027 0.00997275 -1.53869e-06
0.00996706 -2.88334e-05 0.00999605
0 0.01 0.01
0.00996252 -2.93985e-05 -1.88672e-07
0 0.01 0
0 0 0
0.0050049 0.0099909 -2.66469e-07
0.00331838 -5.58885e-06 0.00999902
0 0.00833333 0.01

CELLS 343 686
1 0
1 1
1 2
1 3
1 4
1 5
1 6
1 7
1 8
1 9
1 10
1 11
1 12
1 13
1 14
1 15
1 16
1 17
1 18
1 19
1 20
1 21
1 22
1 23
1 24
1 25
1 26
1 27
1 28
1 29
1 30
1 31
1 32
1 33
1 34
1 35
1 36
1 37
1 38
1 39
1 40
1 41
1 42
1 43
1 44
1 45
1 46
1 47
1 48
1 49
1 50
1 51
1 52
1 53
1 54
1 55
1 56
1 57
1 58
1 59
1 60
1 61
1 62
1 63
1 64
1 65
1 66
1 67
1 68
1 69
1 70
1 71
1 72
1 73
1 74
1 75
1 76
1 77
1 78
1 79
1 80
1 81
1 82
1 83
1 84
1 85
1 86
1 87
1 88
1 89
1 90
1 91
1 92
1 93
1 94
1 95
1 96
1 97
1 98
1 99
1 100
1 101
1 102
1 103
1 104
1 105
1 106
1 107
1 108
1 109
1 110
1 111
1 112
1 113
1 114
1 115
1 116
1 117
1 118
1 119
1 120
1 121
1 122
1 123
1 124
1 125
1 126
1 127
1 128
1 129
1 130
1 131
1 132
1 133
1 134
1 135
1 136
1 137
1 138
1 139
1 140
1 141
1 142
1 143
1 144
1 145
1 146
1 147
1 148
1 149
1 150
1 151
1 152
1 153
1 154
1 155
1 156
1 157
1 158
1 159
1 160
1 161
1 162
1 163
1 164
1 165
1 166
1 167
1 168
1 169
1 170
1 171
1 172
1 173
1 174
1 175
1 176
1 177
1 178
1 179
1 180
1 181
1 182
1 183
1 184
1 185
1 186
1 187
1 188
1 189
1 190
1 191
1 192
1 193
1 194
1 195
1 196
1 197
1 198
1 199
1 200
1 201
1 202
1 203
1 204
1 205
1 206
1 207
1 208
1 209
1 210
1 211
1 212
1 213
1 214
1 215
1 216
1 217
1 218
1 219
1 220
1 221
1 222
1 223
1 224
1 225
1 226
1 227
1 228
1 229
1 230
1 231
1 232
1 233
1 234
1 235
1 236
1 237
1 238
1 239
1 240
1 241
1 242
1 243
1 244
1 245
1 246
1 247
1 248
1 249
1 250
1 251
1 252
1 253
1 254
1 255
1 256
1 257
1 258
1 259
1 260
1 261
1 262
1 263
1 264
1 265
1 266
1 267
1 268
1 269
1 270
1 271
1 272
1 273
1 274
1 275
1 276
1 277
1 278
1 279
1 280
1 281
1 282
1 283
1 284
1 285
1 286
1 287
1 288
1 289
1 290
1 291
1 292
1 293
1 294
1 295
1 296
1 297
1 298
1 299
1 300
1 301
1 302
1 303
1 304
1 305
1 306
1 307
1 308
1 309
1 310
1 311
1 312
1 313
1 314
1 315
1 316
1 317
1 318
1 319
1 320
1 321
1 322
1 323
1 324
1 325
1 326
1 327
1 328
1 329
1 330
1 331
1 332
1 333
1 334
1 335
1 336
1 337
1 338
1 339
1 340
1 341
1 342

CELL_TYPES 343
1
1
1
1
1
1
1
1
1
1
1
1
1
1
1
1
1
1
1
1
1
1
1
1
1
1
1
1
1
1
1
1
1
1
1
1
1
1
1
1
1
1
1
1
1
1
1
1
1
1
1
1
1
1
1
1
1
1
1
1
1
1
1
1
1
1
1
1
1
1
1
1
1
1
1
1
1
1
1
1
1
1
1
1
1
1
1
1
1
1
1
1
1
1
1
1
1
1
1
1
1
1
1
1
1
1
1
1
1
1
1
1
1
1
1
1
1
1
1
1
1
1
1
1
1
1
1
1
1
1
1
1
1
1
1
1
1
1
1
1
1
1
1
1
1
1
1
1
1
1
1
1
1
1
1
1
1
1
1
1
1
1
1
1
1
1
1
1
1
1
1
1
1
1
1
1
1
1
1
1
1
1
1
1
1
1
1
1
1
1
1
1
1
1
1
1
1
1
1
1
1
1
1
1
1
1
1
1
1
1
1
1
1
1
1
1
1
1
1
1
1
1
1
1
1
1
1
1
1
1
1
1
1
1
1
1
1
1
1
1
1
1
1
1
1
1
1
1
1
1
1
1
1
1
1
1
1
1
1
1
1
1
1
1
1
1
1
1
1
1
1
1
1
1
1
1
1
1
1
1
1
1
1
1
1
1
1
1
1
1
1
1
1
1
1
1
1
1
1
1
1
1
1
1
1
1
1
1
1
1
1
1
1
1
1
1
1
1
1
1
1
1
1
1
1
1
1
1
1
1
1
1
1
1
1
1
1
1
1
1
1
1
1

POINT_DATA 343
FIELD FieldData 3

ExternalForceID_(#) 1 343 int
0
1
2
3
4
5
6
7
8
9
10
11
12
13
14
15
16
17
18
19
20
21
22
23
24
25
26
27
28
29
30
31
32
33
34
35
36
37
38
39
40
41
42
43
44
45
46
47
48
49
50
51
52
53
54
55
56
57
58
59
60
61
62
63
64
65
66
67
68
69
70
71
72
73
74
75
76
77
78
79
80
81
82
83
84
85
86
87
88
89
90
91
92
93
94
95
96
97
98
99
100
101
102
103
104
105
106
107
108
109
110
111
112
113
114
115
116
117
118
119
120
121
122
123
124
125
126
127
128
129
130
131
132
133
134
135
136
137
138
139
140
141
142
143
144
145
146
147
148
149
150
151
152
153
154
155
156
157
158
159
160
161
162
163
164
165
166
167
168
169
170
171
172
173
174
175
176
177
178
179
180
181
182
183
184
185
186
187
188
189
190
191
192
193
194
195
196
197
198
199
200
201
202
203
204
205
206
207
208
209
210
211
212
213
214
215
216
217
218
219
220
221
222
223
224
225
226
227
228
229
230
231
232
233
234
235
236
237
238
239
240
241
242
243
244
245
246
247
248
249
250
251
252
253
254
255
256
257
258
259
260
261
262
263
264
265
266
267
268
269
270
271
272
273
274
275
276
277
278
279
280
281
282
283
284
285
286
287
288
289
290
291
292
293
294
295
296
297
298
299
300
301
302
303
304
305
306
307
308
309
310
311
312
313
314
315
316
317
318
319
320
321
322
323
324
325
326
327
328
329
330
331
332
333
334
335
336
337
338
339
340
341
342

ExternalForceType_(0/1/2/3/4) 1 343 int
0
0
0
0
0
0
0
0
0
0
0
0
0
0
0
0
0
0
0
0
0
0
0
0
0
0
0
0
0
0
0
0
0
0
0
0
0
0
0
0
0
0
0
0
0
0
0
0
0
0
0
0
0
0
0
0
0
0
0
0
0
0
0
0
0
0
0
0
0
0
0
0
0
0
0
0
0
0
0
0
0
0
0
0
0
0
0
0
0
0
0
0
0
0
0
0
0
0
0
0
0
0
0
0
0
0
0
0
0
0
0
0
0
0
0
0
0
0
0
0
0
0
0
0
0
0
0
0
0
0
0
0
0
0
0
0
0
0
0
0
0
0
0
0
0
0
0
0
0
0
0
0
0
0
0
0
0
0
0
0
0
0
0
0
0
0
0
0
0
0
0
0
0
0
0
0
0
0
0
0
0
0
0
0
0
0
0
0
0
0
0
0
0
0
0
0
0
0
0
0
0
0
0
0
0
0
0
0
0
0
0
0
0
0
0
0
0
0
0
0
0
0
0
0
0
0
0
0
0
0
0
0
0
0
0
0
0
0
0
0
0
0
0
0
0
0
0
0
0
0
0
0
0
0
0
0
0
0
0
0
0
0
0
0
0
0
0
0
0
0
0
0
0
0
0
0
0
0
0
0
0
0
0
0
0
0
0
0
0
0
0
0
0
0
0
0
0
0
0
0
0
0
0
0
0
0
0
0
0
0
0
0
0
0
0
0
0
0
0
0
0
0
0
0
0
0
0
0
0
0
0
0
0
0
0
0
0
0
0
0
0
0
0

ExternalForce_(N) 3 343 double
0 -3.09568e-05 0
0 -0.000138619 0
0 -2.16714e-05 0
0 -0.000168226 0
0 -8.26002e-05 0
0 -8.9203e-05 0
0 -9.74165e-05 0
0 -7.37906e-05 0
0 -6.68156e-05 0
0 -5.47617e-05 0
0 -3.04981e-05 0
0 -0.000105531 0
0 -4.77758e-05 0
0 -0.000161821 0
0 -2.96713e-05 0
0 -7.9067e-05 0
0 -6.57564e-05 0
0 -0.000106704 0
0 -4.11017e-05 0
0 -8.006e-05 0
0 -6.02474e-05 0
0 -0.000115662 0
0 -2.18875e-05 0
0 -4.17098e-05 0
0 -0.000107827 0
0 -7.27379e-05 0
0 -4.13856e-05 0
0 -3.85027e-05 0
0 -3.029e-05 0
0 -0.000128774 0
0 -7.57947e-05 0
0 -0.000162261 0
0 -0.000116775 0
0 -7.15802e-05 0
0 -3.74431e-05 0
0 -0.000108892 0
0 -3.74072e-05 0
0 -0.000136493 0
0 -6.25303e-05 0
0 -7.85756e-05 0
0 -7.52544e-05 0
0 -0.000116589 0
0 -0.000160874 0
0 -2.73339e-05 0
0 -8.7662e-05 0
0 -2.53184e-05 0
0 -7.42972e-05 0
0 -4.15199e-05 0
0 -0.000128792 0
0 -3.72945e-05 0
0 -2.72189e-05 0
0 -7.03157e-05 0
0 -0.000119003 0
0 -5.02041e-05 0
0 -8.04153e-05 0
0 -4.4939e-05 0
0 -2.74192e-05 0
0 -3.19929e-05 0
0 -4.04607e-05 0
0 -2.07889e-05 0
0 -3.28809e-05 0
0 -3.54797e-05 0
0 -0.000153858 0
0 -7.19739e-05 0
0 -8.09026e-05 0
0 -4.90862e-05 0
0 -2.77255e-05 0
0 -7.06591e-05 0
0 -3.20606e-05 0
0 -4.10794e-05 0
0 -1.98932e-05 0
0 -2.37551e-05 0
0 -3.0591e-05 0
0 -5.86107e-05 0
0 -5.75946e-05 0
0 -4.01595e-05 0
0 -5.35099e-05 0
0 -2.24477e-05 0
0 -4.41213e-05 0
0 -4.29866e-05 0
0 -4.42325e-05 0
0 -4.30889e-05 0
0 -4.19155e-05 0
0 -5.21923e-05 0
0 -1.5029e-05 0
0 -2.34331e-05 0
0 -1.9903e-05 0
0 -4.30461e-05 0
0 -3.11931e-05 0
0 -3.08326e-05 0
0 -4.52797e-05 0
0 -5.7648e-05 0
0 -8.02544e-05 0
0 -2.43623e-05 0
0 -0.000150893 0
0 -3.43039e-05 0
0 -7.21258e-05 0
0 -1.97489e-05 0
0 -2.00202e-05 0
0 -7.83017e-05 0
0 -4.32908e-05 0
0 -7.00326e-05 0
0 -1.17841e-05 0
0 -4.93779e-05 0
0 -1.58193e-05 0
0 -4.04762e-05 0
0 -8.57147e-05 0
0 -4.2953e-05 0
0 -7.82027e-05 0
0 -2.09499e-05 0
0 -3.31713e-05 0
0 -9.30599e-05 0
0 -7.26197e-05 0
0 -1.76801e-05 0
0 -2.06228e-05 0
0 -7.8371e-05 0
0 -1.84411e-05 0
0 -7.30662e-05 0
0 -4.11806e-05 0
0 -2.3265e-05 0
0 -4.23503e-05 0
0 -5.94919e-05 0
0 -4.22718e-05 0
0 -2.12723e-05 0
0 -1.86252e-05 0
0 -1.77849e-05 0
0 -3.82356e-05 0
0 -2.39658e-05 0
0 -1.62481e-05 0
0 -7.86148e-05 0
0 -1.61387e-05 0
0 -2.34763e-05 0
0 -2.95637e-05 0
0 -2.93742e-05 0
0 -1.33947e-05 0
0 -1.83735e-05 0
0 -2.05639e-05 0
0 -1.91062e-05 0
0 -1.84053e-05 0
0 -6.25793e-05 0
0 -4.49914e-05 0
0 -1.98914e-05 0
0 -1.58922e-05 0
0 -2.367e-05 0
0 -3.81266e-05 0
0 -4.36518e-05 0
0 -2.25472e-05 0
0 -0.000115119 0
0 -3.05886e-05 0
0 -1.32828e-05 0
0 -3.38507e-05 0
0 -1.78391e-05 0
0 -2.88237e-05 0
0 -1.34771e-05 0
0 -2.36876e-05 0
0 -2.06453e-05 0
0 -2.58912e-05 0
0 -2.10097e-05 0
0 -1.7602e-05 0
0 -3.13896e-05 0
0 -1.34386e-05 0
0 -2.38863e-05 0
0 -2.04203e-05 0
0 -1.33426e-05 0
0 -2.13076e-05 0
0 -1.86316e-05 0
0 -3.10974e-05 0
0 -2.56228e-05 0
0 -2.33161e-05 0
0 -1.57181e-05 0
0 -1.87061e-05 0
0 -5.38771e-05 0
0 -1.84308e-05 0
0 -3.08341e-05 0
0 -2.91652e-05 0
0 -1.16203e-05 0
0 -1.85667e-05 0
0 -2.00287e-05 0
0 -2.68375e-05 0
0 -2.37799e-05 0
0 -3.16945e-05 0
0 -3.13676e-05 0
0 -3.15313e-05 0
0 -1.90796e-05 0
0 -1.58134e-05 0
0 -1.83326e-05 0
0 -3.16308e-05 0
0 -2.07128e-05 0
0 -2.91276e-05 0
0 -6.03597e-05 0
0 -2.26581e-05 0
0 -2.35174e-05 0
0 -2.33506e-05 0
0 -2.59482e-05 0
0 -1.63393e-05 0
0 -1.78912e-05 0
0 -2.02658e-05 0
0 -5.62379e-05 0
0 -2.04507e-05 0
0 -2.14176e-05 0
0 -2.38895e-05 0
0 -3.05955e-05 0
0 -3.11287e-05 0
0 -2.01544e-05 0
0 -1.92198e-05 0
0 -2.99909e-05 0
0 -6.32085e-05 0
0 -2.04829e-05 0
0 -2.67435e-05 0
0 -2.11611e-05 0
0 -1.83262e-05 0
0 -1.96474e-05 0
0 -2.0699e-05 0
0 -2.83503e-05 0
0 -2.27807e-05 0
0 -2.35234e-05 0
0 -1.93874e-05 0
0 -6.29086e-05 0
0 -2.12117e-05 0
0 -3.22943e-05 0
0 -2.06229e-05 0
0 -2.61501e-05 0
0 -1.90721e-05 0
0 -2.86319e-05 0
0 -2.53212e-05 0
0 -2.07681e-05 0
0 -2.05553e-05 0
0 -1.88077e-05 0
0 -6.92631e-05 0
0 -2.20924e-05 0
0 -2.02457e-05 0
0 -6.16224e-05 0
0 -2.08117e-05 0
0 -2.85397e-05 0
0 -2.08875e-05 0
0 -6.32617e-05 0
0 -1.39008e-05 0
0 -2.0289e-05 0
0 -6.45558e-05 0
0 -2.47785e-05 0
0 -2.35177e-05 0
0 -7.28089e-06 0
0 -2.18143e-05 0
0 -6.93323e-06 0
0 -6.87344e-06 0
0 -8.76768e-06 0
0 -2.48719e-05 0
0 -2.22231e-05 0
0 -1.31068e-05 0
0 -7.69816e-06 0
0 -2.27889e-05 0
0 -5.95166e-06 0
0 -6.55579e-06 0
0 -6.71305e-06 0
0 -2.46468e-05 0
0 -2.27228e-05 0
0 -7.6878e-06 0
0 -6.67903e-06 0
0 -6.10861e-05 0
0 -6.6189e-06 0
0 -6.52665e-06 0
0 -6.87836e-06 0
0 -1.78856e-05 0
0 -1.87072e-05 0
0 -6.73674e-06 0
0 -6.91401e-06 0
0 -1.82903e-05 0
0 -2.2423e-05 0
0 -6.67521e-06 0
0 -7.02401e-06 0
0 -1.78908e-05 0
0 -5.89658e-06 0
0 -1.98938e-05 0
0 -7.3162e-06 0
0 -5.63509e-06 0
0 -1.76631e-05 0
0 -1.42638e-05 0
0 -2.22707e-05 0
0 -1.77204e-05 0
0 -2.11264e-05 0
0 -1.75686e-05 0
0 -1.76047e-05 0
0 -6.69346e-06 0
0 -2.20467e-05 0
0 -1.42479e-05 0
0 -1.76144e-05 0
0 -6.84615e-06 0
0 -6.12404e-06 0
0 -6.50125e-06 0
0 -1.41879e-05 0
0 -1.37476e-05 0
0 -2.11168e-05 0
0 -1.79377e-05 0
0 -1.37282e-05 0
0 -1.41198e-05 0
0 -2.15061e-05 0
0 -6.84475e-06 0
0 -1.74349e-05 0
0 -1.75758e-05 0
0 -6.41828e-06 0
0 -7.20025e-06 0
0 -2.30432e-05 0
0 -6.96894e-06 0
0 -6.44499e-06 0
0 -6.14414e-06 0
0 -2.14766e-05 0
0 -6.00855e-06 0
0 -5.92427e-06 0
0 -5.81567e-06 0
0 -5.02303e-06 0
0 -5.01945e-06 0
0 -4.85271e-06 0
0 -4.87573e-06 0
0 -4.8684e-06 0
0 -5.22951e-06 0
0 -4.84801e-06 0
0 -4.88396e-06 0
0 -4.77612e-06 0
0 -4.81304e-06 0
0 -4.85251e-06 0
0 -4.8555e-06 0
0 -4.82575e-06 0
0 -4.80313e-06 0
0 -4.86923e-06 0
0 -4.85781e-06 0
0 -4.73027e-06 0
0 -1.08748e-05 0
0 -5.22863e-06 0
0 -5.34413e-06 0
0 -5.26459e-06 0
0 -5.05624e-06 0
0 -4.92238e-06 0
0 -5.43253e-06 0
0 -5.43253e-06 0
0 -5.43253e-06 0
0 -5.43253e-06 0
0 -5.43253e-06 0
0 -5.43253e-06 0
0 -5.40321e-06 0
0 -5.40321e-06 0
0 -7.3113e-06 0
0 -6.98147e-06 0
0 -4.8949e-06 0

