# vtk DataFile Version 4.2
vtk output
ASCII
DATASET UNSTRUCTURED_GRID

POINTS 343 double
0.00112258 0.0041949 8.82817e-08
0.00217126 0.00498246 0.00217537
0 0.00419538 0.00112517
0.00193009 0.00195441 0.00194217
0.00516932 0.00240644 0.00503229
0.00517216 0.00382965 0.00639757
0.00762286 0.00477457 0.004999
0.00622489 0.00484983 0.00369187
0.00683613 0.00328789 0.006914
0.00499126 0.00499217 0.00499986
0.00418 0.00111782 0.0099991
0.00528067 0.00207981 0.00790407
0.00418982 -7.74903e-06 0.00831717
0.00201231 0.00200244 0.00803326
0.00428593 0.00253259 0.00999914
0.00695698 0.00644607 0.00694692
0.00641417 0.00618181 0.0051831
0.00226056 0.00218457 0.00514612
0 0.00143586 0.00417514
0.00159462 0.00346613 0.00403704
0.00683722 0.00319322 0.00316159
0.00774524 0.0022121 0.00506399
0 0.00270918 0.00154168
0.00415822 0.00142819 2.56114e-07
0.00500776 0.0021874 0.00219811
0.00396263 0.00352647 0.00160321
0.0013453 -6.14675e-07 0.00406003
0.00418312 -8.10435e-06 0.00168837
0.0026266 0.00695156 1.73352e-07
0.00193855 0.0080527 0.00194493
0.00408808 0.00624784 0.0016452
0.00800365 0.00798496 0.00799716
0.00796498 0.0048146 0.0080222
0.00838877 0.00607847 0.00594788
0.0100001 0.00882392 0.00419181
0.00757769 0.00763473 0.00496366
0.00856821 0.0099788 0.00416643
0.00797752 0.00797006 0.00201598
0.00353599 0.00303635 0.00695953
0.00443736 0.00366161 0.008324
0.00389217 0.00160027 0.00596906
0.00500603 0.00766787 0.00767665
0.00198983 0.00800784 0.00798964
0.00282799 0.00999717 0.00712715
0.00391717 0.00839925 0.00595783
0 0.00695361 0.00262895
0.00164663 0.00623922 0.0040879
0 0.0040177 0.00850214
0.00231515 0.00498565 0.00766151
0.00143333 0.00417445 0.00999994
0.00717542 0.00711723 0.00999768
0.00611849 0.00597013 0.00841726
0.00205212 0.00794138 0.00474185
0.00304401 0.00694278 0.00646772
0.00158704 0.00607832 0.00592602
0.00998945 0.0057821 0.00831438
0 0.00718191 0.00711644
0.00158473 0.00577341 5.31799e-08
0 0.00577432 0.00158701
0.00999454 0.00715582 0.00711385
0.00286744 0.00334917 0.00999968
0.00996989 0.00140736 0.00417394
0.00803615 0.00194177 0.00197898
0.0083894 0.00350089 0.00399816
0.00372566 0.00164777 0.00412838
0.0015096 0.00999967 0.00581502
0.00280935 -3.72604e-06 0.00712772
0.00610983 0.00417083 0.00837574
0.00999364 0.00724786 0.00419413
0.00852804 -2.3381e-05 0.00416733
0.00334177 0.0028695 1.81825e-07
0.00270012 0.00153872 0.00999971
0.00281821 -4.11564e-06 0.00283207
0.00479808 0.00519372 0.00755416
0.00315824 0.00314614 0.0031674
0 0.00849157 0.00581511
0.00486488 0.00366914 0.00378624
0.00153709 0.00270864 4.15341e-08
0.00580038 0.00831537 0.00999819
0.00598581 0.00998869 0.00850476
0.00421478 0.00999377 0.00831724
0.00401834 0.00849803 0.00999886
0.0099993 0.00846525 0.00581284
0.00314777 0.00683341 0.00315092
0 0.00748929 0.00137438
0.00137358 0.00748898 1.94409e-08
0 0.00287343 0.00335182
0 0.00580816 0.00831736
0 0.00429792 0.00253898
0.00253372 0.00429582 1.85263e-07
0.00143398 0.00581915 0.00999995
0.00517582 0.00646817 0.00640001
0.00360362 0.00650921 0.00823377
0.0069323 0.0026122 0.00999801
0.00799931 0.00193866 0.00803386
0.00694155 -1.73765e-05 0.00308186
0.00600059 0.00165181 0.00361274
0.00997532 0.00284581 0.00335084
0 0.00140616 0.00256446
0.00637408 0.00821603 0.00642018
0.00579646 0.00142268 4.64541e-07
0.00602216 0.00354037 0.00160327
0.0031577 0.00999632 0.00582513
0.00856353 0.00997898 0.00583152
0.00255396 0.00140288 2.00684e-07
0.00594967 -1.38076e-05 0.00149464
0.00628111 0.00827606 0.0036169
0.00852348 -2.31961e-05 0.00583211
0.00618649 0.0016599 0.00636464
0.00140231 0.00256405 0.01
0.00711182 0.00716694 -1.4307e-07
0.00516579 0.00768183 0.00216883
0.00593678 0.00608326 0.00160183
0 0.00686719 0.00578184
0.00996908 0.00137744 0.0025638
0.0017723 0.00360985 0.00640786
0.00999801 0.00846025 0.00262244
0.00840388 0.00616941 0.00413183
0.00598395 0.009988 0.00149358
0.00694159 -1.70863e-05 0.00692548
0.00997061 0.00140717 0.00581785
0.00837947 0.00355285 0.00605952
0.00150182 -7.87025e-07 0.0058152
0 0.0013659 0.00748679
0.00136366 -6.62893e-07 0.00752891
0.00999265 0.00684102 0.00577966
0.00581597 0.00848064 -4.94498e-08
0 0.0075208 0.00859127
0.00136528 0.00748642 0.00999988
0.00423157 0.00820002 0.00362818
0.00859708 0.00997885 0.00750993
0.0100007 0.00860405 0.00752352
0.00575502 0.00157505 0.00999844
0.00724576 0.00417271 0.00999783
0 0.0057735 0.00666667
0.00137053 0.00999961 0.00752892
0 0.00863025 0.00752641
0.00855401 -2.3819e-05 0.00250719
0.00999169 0.00692712 0.00262779
0.00845089 0.00632188 0.00216231
0.00850072 0.00580395 0.00999724
0.00746555 0.001356 0.00999768
0.00855691 -2.3424e-05 0.00751009
0.00997102 0.00133764 0.00748426
0 0.00143551 0.00581971
0.00595193 -1.33391e-05 0.00850467
0.00419296 -8.15497e-06 0.00340004
0.0079203 0.00468927 0.00203413
0.00998075 0.00427094 0.00253807
0.00423235 0.00999353 0.00666608
0.00283714 0.00999721 0.00283193
0.00130697 -6.71266e-07 0.00241834
0 0.00727418 0.00419576
0.00998852 0.00574735 0.00666423
0.00697853 0.00998462 0.00308095
0.0075094 0.00862058 0.00999753
0 0.00574334 0.00336387
0 0.0043297 0.00416652
0.00686251 0.00577081 0.00999799
0.00997743 0.00299496 0.00691292
0.00420582 -7.94593e-06 0.00666642
0.00248089 0.00999759 0.00861134
0.0074592 0.0013469 3.01313e-07
0.00577093 0.00665714 0.00999825
0.00999661 0.00749481 0.00858808
0.00860636 0.00753335 0.00999712
0.00689493 0.00300666 3.79387e-07
0.00335915 0.00574031 2.86321e-07
0.00752669 0.00861322 -3.48469e-07
0.00752023 0.0099823 0.00138676
0.00577738 0.00685708 2.80264e-08
0.00696853 0.00635676 0.00303295
0.00748204 -1.98224e-05 0.00138787
0.00288057 0.00499704 0.00999958
0.00432576 0.00582841 0.00999891
0.00432154 0.00416127 0.00999899
0.00752284 0.00998291 0.00861389
0.00246479 -3.14945e-06 0.00861153
0.00998692 0.00571688 0.00336265
0 0.00302218 0.00691532
0.00998213 0.00399115 0.00849918
0.00848277 0.00399638 1.47559e-08
0.00997394 0.0026812 0.00154121
0 0.00244495 0.00857025
0.00244631 0.0085681 0.00999947
0.0074848 -1.93157e-05 0.00861377
0.00846606 0.00260264 0.00999726
0.00883582 0.00417204 0.00999709
0.00567632 0.00998934 0.00583253
0.00518543 0.00757547 0.00503194
0.00564818 0.00998928 0.00421469
0.00697846 0.00998497 0.00692513
0.00302096 0.00691324 0.00999934
0.00415732 0.00432441 3.94759e-07
0.00282125 -4.2557e-06 0.00440478
0.00313745 -4.7514e-06 0.00582555
0.0099798 0.00416812 0.00112465
0.00363841 0.00833301 0.00158831
0.00998156 0.00430288 0.00416515
0.00665711 0.00576023 1.86351e-07
0.00859435 0.00997844 0.00250606
0 0.00848692 0.00262374
0.0013523 0.00999965 0.00405987
0 0.00885053 0.00419359
0.00419546 0.00884407 1.20691e-07
0.00420934 0.00999333 0.00168766
0.00499003 0.00478412 0.0023789
0.00720434 0.00450582 2.34916e-07
0.0056159 -1.26724e-05 0.00421551
0.0056441 -1.26054e-05 0.00583298
0.0013138 0.00999966 0.00241806
0.00854448 0.00242253 1.16956e-07
0.00998365 0.00449527 0.007217
0.00712119 0.00998432 0.00499914
0.00573008 0.00335373 0.00999848
0.00244549 -3.32949e-06 0.00135677
0.00997577 0.00241739 0.00856736
0.00239185 0.00478972 0.00499993
0.00581994 0.00431941 4.16225e-07
0.00830556 0.0057882 -2.02129e-07
0.00548549 0.00999012 0.0072195
0.00998224 0.00430347 0.00583131
0.00540808 0.00998991 0.00277522
0.00708385 -1.76958e-05 0.00499986
0.00283962 0.00999722 0.00440434
0 0.00452174 0.00721958
0.00452054 0.00721429 0.00999876
0.00545387 -1.17834e-05 0.00721948
0.00359813 0.00507033 0.00359654
0.00425702 0.00999347 0.00500785
0.00422976 -8.13016e-06 0.00500852
0.00366637 0.00521331 0.00617444
0 0.005744 0.00499998
0 0.00433013 0.00583333
0.00499283 0.00573684 3.57097e-07
0.00498062 0.00633205 0.00355368
0.00537636 -1.19751e-05 0.00277616
0.00998765 0.00571773 0.00499817
0.00368811 0.00640424 0.00484382
0.0057361 0.00499083 0.00999841
0.00998638 0.00574764 0.00158625
0 0.00666667 0
0.00858606 0.00749991 -5.17869e-07
0.00331612 -6.29643e-06 8.57432e-07
0 0.01 0.00666667
0.00500707 0.00999127 0.00999875
0 0.00288419 0.00499914
0.00999343 0.00746267 0.00137351
0.00998958 0.00663995 -7.61748e-07
0 0.005 0.01
0.00498321 0.00287543 3.65519e-07
0 0.005 0
0.00996369 -2.94577e-05 0.00333258
0.0100059 0.00997305 0.00666396
0.00419354 0.00726878 1.96143e-07
0.00997598 0.0028568 0.00499754
0.00497559 -1.12776e-05 8.86033e-07
0 0 0.00666667
0.00379043 0.00361251 0.00522625
0.00497833 -1.0752e-05 0.00999837
0.00996512 -2.91795e-05 0.00666448
0 0 0.005
0.00878499 0.00997747 0.00121922
0.00999871 0.00875291 0.00121906
0.00996437 -2.9269e-05 0.00499855
0.00998275 0.00497284 -5.21723e-07
0.00121555 0.00121923 -7.83378e-09
0 0.00122008 0.00122008
0 0.00333333 0.01
0 0.00666667 0.01
0.00877965 0.00875778 -7.32553e-07
0.0100046 0.00997268 0.00333162
0.00422002 0.00999342 0.0033994
0.0099937 0.00664079 0.00999662
0 0.00333333 0
0 0.00122008 0.00877992
0.0012149 -8.45002e-07 0.00877968
0.00121612 0.0012195 0.0100001
0.00878796 0.00997805 0.0087773
0.00122013 0.00877944 0.00999987
0 0.00877992 0.00877992
0.0100019 0.00875365 0.0087767
0.00667232 0.00998529 -5.48072e-07
0.00996772 0.00119104 0.00121983
0.00122114 0.00999944 0.0087801
0.00878371 0.00875857 0.00999708
0.00998682 0.00497378 0.00999665
0 0 0.00333333
0.00663607 -1.68016e-05 8.46444e-07
0.00874447 -2.4825e-05 0.00122043
0.00120592 -8.80331e-07 0.0012121
0 0.00877992 0.00122008
0.00122008 0.00877939 1.01549e-07
0.00121245 0.0099995 0.00121141
0.00997091 0.00119165 0.00877683
0.00875297 0.00119648 0.00999704
0.00663968 -1.62911e-05 0.00999754
0.00874888 0.00119585 2.02425e-07
0.00874764 -2.42941e-05 0.00877709
0.00997599 0.00330556 -3.24079e-07
0.00333854 0.00999538 0.00999957
0.00246214 0.00999778 0.00135634
0.00667546 0.009986 0.00999815
0.00998 0.0033065 0.00999665
0 0.01 0.005
0.00262428 0.00848454 1.80383e-07
0.0100052 0.00997288 0.00499787
0 0.01 0.00333333
0 0.00166667 0
0.00996301 -2.97175e-05 0.00166649
0 0.00166667 0.01
0 0.00833333 0
0.00999651 0.00830632 -9.94556e-07
0.00996584 -2.92464e-05 0.00833026
0.0100039 0.00997246 0.00166541
0.0100067 0.00997308 0.00833024
0.00166918 0.00999846 0.00999989
0 0.01 0.00833333
0.00833841 0.00997903 -8.03759e-07
0.00829848 -2.33564e-05 4.94126e-07
0.00830252 -2.28077e-05 0.00999696
0.00834209 0.00997963 0.00999735
0 0 0.00833333
0.0100006 0.00830719 0.00999657
0.00165778 -2.18677e-06 2.66809e-07
0 0 0.00166667
0.00333791 0.00999555 5.47456e-08
0.00997322 0.0016384 0.00999659
0.00996915 0.00163773 -1.82266e-07
0.00165893 -1.79551e-06 0.00999998
0.00166882 0.00999877 7.08783e-08
0 0.01 0.00166667
0.0100075 0.00997311 0.00999664
0 0 0.01
0.0100033 0.00997228 -1.27802e-06
0.0099665 -2.93597e-05 0.0099963
0 0.01 0.01
0.00996237 -2.99305e-05 8.06828e-08
0 0.01 0
0 0 0
0.00500536 0.00999076 -1.8605e-07
0.00331811 -5.6761e-06 0.00999905
0 0.00833333 0.01

CELLS 343 686
1 0
1 1
1 2
1 3
1 4
1 5
1 6
1 7
1 8
1 9
1 10
1 11
1 12
1 13
1 14
1 15
1 16
1 17
1 18
1 19
1 20
1 21
1 22
1 23
1 24
1 25
1 26
1 27
1 28
1 29
1 30
1 31
1 32
1 33
1 34
1 35
1 36
1 37
1 38
1 39
1 40
1 41
1 42
1 43
1 44
1 45
1 46
1 47
1 48
1 49
1 50
1 51
1 52
1 53
1 54
1 55
1 56
1 57
1 58
1 59
1 60
1 61
1 62
1 63
1 64
1 65
1 66
1 67
1 68
1 69
1 70
1 71
1 72
1 73
1 74
1 75
1 76
1 77
1 78
1 79
1 80
1 81
1 82
1 83
1 84
1 85
1 86
1 87
1 88
1 89
1 90
1 91
1 92
1 93
1 94
1 95
1 96
1 97
1 98
1 99
1 100
1 101
1 102
1 103
1 104
1 105
1 106
1 107
1 108
1 109
1 110
1 111
1 112
1 113
1 114
1 115
1 116
1 117
1 118
1 119
1 120
1 121
1 122
1 123
1 124
1 125
1 126
1 127
1 128
1 129
1 130
1 131
1 132
1 133
1 134
1 135
1 136
1 137
1 138
1 139
1 140
1 141
1 142
1 143
1 144
1 145
1 146
1 147
1 148
1 149
1 150
1 151
1 152
1 153
1 154
1 155
1 156
1 157
1 158
1 159
1 160
1 161
1 162
1 163
1 164
1 165
1 166
1 167
1 168
1 169
1 170
1 171
1 172
1 173
1 174
1 175
1 176
1 177
1 178
1 179
1 180
1 181
1 182
1 183
1 184
1 185
1 186
1 187
1 188
1 189
1 190
1 191
1 192
1 193
1 194
1 195
1 196
1 197
1 198
1 199
1 200
1 201
1 202
1 203
1 204
1 205
1 206
1 207
1 208
1 209
1 210
1 211
1 212
1 213
1 214
1 215
1 216
1 217
1 218
1 219
1 220
1 221
1 222
1 223
1 224
1 225
1 226
1 227
1 228
1 229
1 230
1 231
1 232
1 233
1 234
1 235
1 236
1 237
1 238
1 239
1 240
1 241
1 242
1 243
1 244
1 245
1 246
1 247
1 248
1 249
1 250
1 251
1 252
1 253
1 254
1 255
1 256
1 257
1 258
1 259
1 260
1 261
1 262
1 263
1 264
1 265
1 266
1 267
1 268
1 269
1 270
1 271
1 272
1 273
1 274
1 275
1 276
1 277
1 278
1 279
1 280
1 281
1 282
1 283
1 284
1 285
1 286
1 287
1 288
1 289
1 290
1 291
1 292
1 293
1 294
1 295
1 296
1 297
1 298
1 299
1 300
1 301
1 302
1 303
1 304
1 305
1 306
1 307
1 308
1 309
1 310
1 311
1 312
1 313
1 314
1 315
1 316
1 317
1 318
1 319
1 320
1 321
1 322
1 323
1 324
1 325
1 326
1 327
1 328
1 329
1 330
1 331
1 332
1 333
1 334
1 335
1 336
1 337
1 338
1 339
1 340
1 341
1 342

CELL_TYPES 343
1
1
1
1
1
1
1
1
1
1
1
1
1
1
1
1
1
1
1
1
1
1
1
1
1
1
1
1
1
1
1
1
1
1
1
1
1
1
1
1
1
1
1
1
1
1
1
1
1
1
1
1
1
1
1
1
1
1
1
1
1
1
1
1
1
1
1
1
1
1
1
1
1
1
1
1
1
1
1
1
1
1
1
1
1
1
1
1
1
1
1
1
1
1
1
1
1
1
1
1
1
1
1
1
1
1
1
1
1
1
1
1
1
1
1
1
1
1
1
1
1
1
1
1
1
1
1
1
1
1
1
1
1
1
1
1
1
1
1
1
1
1
1
1
1
1
1
1
1
1
1
1
1
1
1
1
1
1
1
1
1
1
1
1
1
1
1
1
1
1
1
1
1
1
1
1
1
1
1
1
1
1
1
1
1
1
1
1
1
1
1
1
1
1
1
1
1
1
1
1
1
1
1
1
1
1
1
1
1
1
1
1
1
1
1
1
1
1
1
1
1
1
1
1
1
1
1
1
1
1
1
1
1
1
1
1
1
1
1
1
1
1
1
1
1
1
1
1
1
1
1
1
1
1
1
1
1
1
1
1
1
1
1
1
1
1
1
1
1
1
1
1
1
1
1
1
1
1
1
1
1
1
1
1
1
1
1
1
1
1
1
1
1
1
1
1
1
1
1
1
1
1
1
1
1
1
1
1
1
1
1
1
1
1
1
1
1
1
1
1
1
1
1
1
1
1
1
1
1
1
1
1
1
1
1
1
1
1
1
1
1
1
1

POINT_DATA 343
FIELD FieldData 3

ExternalForceID_(#) 1 343 int
0
1
2
3
4
5
6
7
8
9
10
11
12
13
14
15
16
17
18
19
20
21
22
23
24
25
26
27
28
29
30
31
32
33
34
35
36
37
38
39
40
41
42
43
44
45
46
47
48
49
50
51
52
53
54
55
56
57
58
59
60
61
62
63
64
65
66
67
68
69
70
71
72
73
74
75
76
77
78
79
80
81
82
83
84
85
86
87
88
89
90
91
92
93
94
95
96
97
98
99
100
101
102
103
104
105
106
107
108
109
110
111
112
113
114
115
116
117
118
119
120
121
122
123
124
125
126
127
128
129
130
131
132
133
134
135
136
137
138
139
140
141
142
143
144
145
146
147
148
149
150
151
152
153
154
155
156
157
158
159
160
161
162
163
164
165
166
167
168
169
170
171
172
173
174
175
176
177
178
179
180
181
182
183
184
185
186
187
188
189
190
191
192
193
194
195
196
197
198
199
200
201
202
203
204
205
206
207
208
209
210
211
212
213
214
215
216
217
218
219
220
221
222
223
224
225
226
227
228
229
230
231
232
233
234
235
236
237
238
239
240
241
242
243
244
245
246
247
248
249
250
251
252
253
254
255
256
257
258
259
260
261
262
263
264
265
266
267
268
269
270
271
272
273
274
275
276
277
278
279
280
281
282
283
284
285
286
287
288
289
290
291
292
293
294
295
296
297
298
299
300
301
302
303
304
305
306
307
308
309
310
311
312
313
314
315
316
317
318
319
320
321
322
323
324
325
326
327
328
329
330
331
332
333
334
335
336
337
338
339
340
341
342

ExternalForceType_(0/1/2/3/4) 1 343 int
0
0
0
0
0
0
0
0
0
0
0
0
0
0
0
0
0
0
0
0
0
0
0
0
0
0
0
0
0
0
0
0
0
0
0
0
0
0
0
0
0
0
0
0
0
0
0
0
0
0
0
0
0
0
0
0
0
0
0
0
0
0
0
0
0
0
0
0
0
0
0
0
0
0
0
0
0
0
0
0
0
0
0
0
0
0
0
0
0
0
0
0
0
0
0
0
0
0
0
0
0
0
0
0
0
0
0
0
0
0
0
0
0
0
0
0
0
0
0
0
0
0
0
0
0
0
0
0
0
0
0
0
0
0
0
0
0
0
0
0
0
0
0
0
0
0
0
0
0
0
0
0
0
0
0
0
0
0
0
0
0
0
0
0
0
0
0
0
0
0
0
0
0
0
0
0
0
0
0
0
0
0
0
0
0
0
0
0
0
0
0
0
0
0
0
0
0
0
0
0
0
0
0
0
0
0
0
0
0
0
0
0
0
0
0
0
0
0
0
0
0
0
0
0
0
0
0
0
0
0
0
0
0
0
0
0
0
0
0
0
0
0
0
0
0
0
0
0
0
0
0
0
0
0
0
0
0
0
0
0
0
0
0
0
0
0
0
0
0
0
0
0
0
0
0
0
0
0
0
0
0
0
0
0
0
0
0
0
0
0
0
0
0
0
0
0
0
0
0
0
0
0
0
0
0
0
0
0
0
0
0
0
0
0
0
0
0
0
0
0
0
0
0
0
0
0
0
0
0
0
0
0
0
0
0
0
0
0
0
0
0
0
0

ExternalForce_(N) 3 343 double
0 -3.09568e-05 0
0 -0.000138619 0
0 -2.16714e-05 0
0 -0.000168226 0
0 -8.26002e-05 0
0 -8.9203e-05 0
0 -9.74165e-05 0
0 -7.37906e-05 0
0 -6.68156e-05 0
0 -5.47617e-05 0
0 -3.04981e-05 0
0 -0.000105531 0
0 -4.77758e-05 0
0 -0.000161821 0
0 -2.96713e-05 0
0 -7.9067e-05 0
0 -6.57564e-05 0
0 -0.000106704 0
0 -4.11017e-05 0
0 -8.006e-05 0
0 -6.02474e-05 0
0 -0.000115662 0
0 -2.18875e-05 0
0 -4.17098e-05 0
0 -0.000107827 0
0 -7.27379e-05 0
0 -4.13856e-05 0
0 -3.85027e-05 0
0 -3.029e-05 0
0 -0.000128774 0
0 -7.57947e-05 0
0 -0.000162261 0
0 -0.000116775 0
0 -7.15802e-05 0
0 -3.74431e-05 0
0 -0.000108892 0
0 -3.74072e-05 0
0 -0.000136493 0
0 -6.25303e-05 0
0 -7.85756e-05 0
0 -7.52544e-05 0
0 -0.000116589 0
0 -0.000160874 0
0 -2.73339e-05 0
0 -8.7662e-05 0
0 -2.53184e-05 0
0 -7.42972e-05 0
0 -4.15199e-05 0
0 -0.000128792 0
0 -3.72945e-05 0
0 -2.72189e-05 0
0 -7.03157e-05 0
0 -0.000119003 0
0 -5.02041e-05 0
0 -8.04153e-05 0
0 -4.4939e-05 0
0 -2.74192e-05 0
0 -3.19929e-05 0
0 -4.04607e-05 0
0 -2.07889e-05 0
0 -3.28809e-05 0
0 -3.54797e-05 0
0 -0.000153858 0
0 -7.19739e-05 0
0 -8.09026e-05 0
0 -4.90862e-05 0
0 -2.77255e-05 0
0 -7.06591e-05 0
0 -3.20606e-05 0
0 -4.10794e-05 0
0 -1.98932e-05 0
0 -2.37551e-05 0
0 -3.0591e-05 0
0 -5.86107e-05 0
0 -5.75946e-05 0
0 -4.01595e-05 0
0 -5.35099e-05 0
0 -2.24477e-05 0
0 -4.41213e-05 0
0 -4.29866e-05 0
0 -4.42325e-05 0
0 -4.30889e-05 0
0 -4.19155e-05 0
0 -5.21923e-05 0
0 -1.5029e-05 0
0 -2.34331e-05 0
0 -1.9903e-05 0
0 -4.30461e-05 0
0 -3.11931e-05 0
0 -3.08326e-05 0
0 -4.52797e-05 0
0 -5.7648e-05 0
0 -8.02544e-05 0
0 -2.43623e-05 0
0 -0.000150893 0
0 -3.43039e-05 0
0 -7.21258e-05 0
0 -1.97489e-05 0
0 -2.00202e-05 0
0 -7.83017e-05 0
0 -4.32908e-05 0
0 -7.00326e-05 0
0 -1.17841e-05 0
0 -4.93779e-05 0
0 -1.58193e-05 0
0 -4.04762e-05 0
0 -8.57147e-05 0
0 -4.2953e-05 0
0 -7.82027e-05 0
0 -2.09499e-05 0
0 -3.31713e-05 0
0 -9.30599e-05 0
0 -7.26197e-05 0
0 -1.76801e-05 0
0 -2.06228e-05 0
0 -7.8371e-05 0
0 -1.84411e-05 0
0 -7.30662e-05 0
0 -4.11806e-05 0
0 -2.3265e-05 0
0 -4.23503e-05 0
0 -5.94919e-05 0
0 -4.22718e-05 0
0 -2.12723e-05 0
0 -1.86252e-05 0
0 -1.77849e-05 0
0 -3.82356e-05 0
0 -2.39658e-05 0
0 -1.62481e-05 0
0 -7.86148e-05 0
0 -1.61387e-05 0
0 -2.34763e-05 0
0 -2.95637e-05 0
0 -2.93742e-05 0
0 -1.33947e-05 0
0 -1.83735e-05 0
0 -2.05639e-05 0
0 -1.91062e-05 0
0 -1.84053e-05 0
0 -6.25793e-05 0
0 -4.49914e-05 0
0 -1.98914e-05 0
0 -1.58922e-05 0
0 -2.367e-05 0
0 -3.81266e-05 0
0 -4.36518e-05 0
0 -2.25472e-05 0
0 -0.000115119 0
0 -3.05886e-05 0
0 -1.32828e-05 0
0 -3.38507e-05 0
0 -1.78391e-05 0
0 -2.88237e-05 0
0 -1.34771e-05 0
0 -2.36876e-05 0
0 -2.06453e-05 0
0 -2.58912e-05 0
0 -2.10097e-05 0
0 -1.7602e-05 0
0 -3.13896e-05 0
0 -1.34386e-05 0
0 -2.38863e-05 0
0 -2.04203e-05 0
0 -1.33426e-05 0
0 -2.13076e-05 0
0 -1.86316e-05 0
0 -3.10974e-05 0
0 -2.56228e-05 0
0 -2.33161e-05 0
0 -1.57181e-05 0
0 -1.87061e-05 0
0 -5.38771e-05 0
0 -1.84308e-05 0
0 -3.08341e-05 0
0 -2.91652e-05 0
0 -1.16203e-05 0
0 -1.85667e-05 0
0 -2.00287e-05 0
0 -2.68375e-05 0
0 -2.37799e-05 0
0 -3.16945e-05 0
0 -3.13676e-05 0
0 -3.15313e-05 0
0 -1.90796e-05 0
0 -1.58134e-05 0
0 -1.83326e-05 0
0 -3.16308e-05 0
0 -2.07128e-05 0
0 -2.91276e-05 0
0 -6.03597e-05 0
0 -2.26581e-05 0
0 -2.35174e-05 0
0 -2.33506e-05 0
0 -2.59482e-05 0
0 -1.63393e-05 0
0 -1.78912e-05 0
0 -2.02658e-05 0
0 -5.62379e-05 0
0 -2.04507e-05 0
0 -2.14176e-05 0
0 -2.38895e-05 0
0 -3.05955e-05 0
0 -3.11287e-05 0
0 -2.01544e-05 0
0 -1.92198e-05 0
0 -2.99909e-05 0
0 -6.32085e-05 0
0 -2.04829e-05 0
0 -2.67435e-05 0
0 -2.11611e-05 0
0 -1.83262e-05 0
0 -1.96474e-05 0
0 -2.0699e-05 0
0 -2.83503e-05 0
0 -2.27807e-05 0
0 -2.35234e-05 0
0 -1.93874e-05 0
0 -6.29086e-05 0
0 -2.12117e-05 0
0 -3.22943e-05 0
0 -2.06229e-05 0
0 -2.61501e-05 0
0 -1.90721e-05 0
0 -2.86319e-05 0
0 -2.53212e-05 0
0 -2.07681e-05 0
0 -2.05553e-05 0
0 -1.88077e-05 0
0 -6.92631e-05 0
0 -2.20924e-05 0
0 -2.02457e-05 0
0 -6.16224e-05 0
0 -2.08117e-05 0
0 -2.85397e-05 0
0 -2.08875e-05 0
0 -6.32617e-05 0
0 -1.39008e-05 0
0 -2.0289e-05 0
0 -6.45558e-05 0
0 -2.47785e-05 0
0 -2.35177e-05 0
0 -7.28089e-06 0
0 -2.18143e-05 0
0 -6.93323e-06 0
0 -6.87344e-06 0
0 -8.76768e-06 0
0 -2.48719e-05 0
0 -2.22231e-05 0
0 -1.31068e-05 0
0 -7.69816e-06 0
0 -2.27889e-05 0
0 -5.95166e-06 0
0 -6.55579e-06 0
0 -6.71305e-06 0
0 -2.46468e-05 0
0 -2.27228e-05 0
0 -7.6878e-06 0
0 -6.67903e-06 0
0 -6.10861e-05 0
0 -6.6189e-06 0
0 -6.52665e-06 0
0 -6.87836e-06 0
0 -1.78856e-05 0
0 -1.87072e-05 0
0 -6.73674e-06 0
0 -6.91401e-06 0
0 -1.82903e-05 0
0 -2.2423e-05 0
0 -6.67521e-06 0
0 -7.02401e-06 0
0 -1.78908e-05 0
0 -5.89658e-06 0
0 -1.98938e-05 0
0 -7.3162e-06 0
0 -5.63509e-06 0
0 -1.76631e-05 0
0 -1.42638e-05 0
0 -2.22707e-05 0
0 -1.77204e-05 0
0 -2.11264e-05 0
0 -1.75686e-05 0
0 -1.76047e-05 0
0 -6.69346e-06 0
0 -2.20467e-05 0
0 -1.42479e-05 0
0 -1.76144e-05 0
0 -6.84615e-06 0
0 -6.12404e-06 0
0 -6.50125e-06 0
0 -1.41879e-05 0
0 -1.37476e-05 0
0 -2.11168e-05 0
0 -1.79377e-05 0
0 -1.37282e-05 0
0 -1.41198e-05 0
0 -2.15061e-05 0
0 -6.84475e-06 0
0 -1.74349e-05 0
0 -1.75758e-05 0
0 -6.41828e-06 0
0 -7.20025e-06 0
0 -2.30432e-05 0
0 -6.96894e-06 0
0 -6.44499e-06 0
0 -6.14414e-06 0
0 -2.14766e-05 0
0 -6.00855e-06 0
0 -5.92427e-06 0
0 -5.81567e-06 0
0 -5.02303e-06 0
0 -5.01945e-06 0
0 -4.85271e-06 0
0 -4.87573e-06 0
0 -4.8684e-06 0
0 -5.22951e-06 0
0 -4.84801e-06 0
0 -4.88396e-06 0
0 -4.77612e-06 0
0 -4.81304e-06 0
0 -4.85251e-06 0
0 -4.8555e-06 0
0 -4.82575e-06 0
0 -4.80313e-06 0
0 -4.86923e-06 0
0 -4.85781e-06 0
0 -4.73027e-06 0
0 -1.08748e-05 0
0 -5.22863e-06 0
0 -5.34413e-06 0
0 -5.26459e-06 0
0 -5.05624e-06 0
0 -4.92238e-06 0
0 -5.43253e-06 0
0 -5.43253e-06 0
0 -5.43253e-06 0
0 -5.43253e-06 0
0 -5.43253e-06 0
0 -5.43253e-06 0
0 -5.40321e-06 0
0 -5.40321e-06 0
0 -7.3113e-06 0
0 -6.98147e-06 0
0 -4.8949e-06 0

