# vtk DataFile Version 4.2
vtk output
ASCII
DATASET UNSTRUCTURED_GRID

POINTS 343 double
0.00112276 0.00419487 1.14007e-07
0.0021714 0.00498232 0.00217557
0 0.00419538 0.00112517
0.0019299 0.0019543 0.00194232
0.00516733 0.00240567 0.00503385
0.00516951 0.00382886 0.00639933
0.00762081 0.00477303 0.00500273
0.00622438 0.00484875 0.00369421
0.00683215 0.00328659 0.00691721
0.00499 0.00499144 0.00500133
0.00417527 0.00111725 0.0100007
0.00527642 0.00207895 0.00790621
0.00418585 -8.30183e-06 0.00831864
0.00201093 0.00200232 0.00803347
0.00428138 0.00253198 0.0100008
0.00695387 0.0064447 0.00695026
0.00641275 0.00618063 0.00518571
0.00225969 0.00218442 0.00514639
0 0.00143586 0.00417514
0.00159429 0.00346608 0.00403713
0.00683657 0.00319194 0.00316444
0.00774228 0.00221051 0.00506786
0 0.00270918 0.00154168
0.00415911 0.00142766 1.38732e-06
0.00500763 0.00218664 0.00219977
0.00396311 0.00352598 0.00160431
0.00134477 -6.13876e-07 0.00406013
0.00418279 -8.49827e-06 0.00168956
0.00262803 0.00695137 5.93115e-07
0.00193899 0.00805265 0.0019451
0.00408913 0.00624742 0.00164635
0.00799965 0.00798316 0.00800171
0.00795989 0.0048129 0.00802669
0.00838603 0.00607661 0.0059525
0.00999955 0.0088215 0.00419785
0.00757668 0.00763312 0.00496734
0.00856852 0.00997693 0.00417105
0.00797934 0.00796835 0.00201995
0.003534 0.00303596 0.00696033
0.00443395 0.00366102 0.00832562
0.00389006 0.00159981 0.00596989
0.00500371 0.00766707 0.00767856
0.00198903 0.00800769 0.00798985
0.0028275 0.00999697 0.00712761
0.00391659 0.00839876 0.00595873
0 0.00695361 0.00262895
0.0016465 0.00623912 0.00408803
0 0.0040177 0.00850214
0.00231403 0.00498551 0.00766181
0.00143228 0.00417438 0.01
0.00716984 0.00711574 0.0100017
0.00611446 0.00596903 0.00842017
0.00205197 0.00794131 0.00474205
0.00304316 0.00694253 0.00646822
0.00158656 0.00607825 0.00592616
0.00998377 0.00577964 0.00832094
0 0.00718191 0.00711644
0.00158524 0.00577332 1.56895e-07
0 0.00577432 0.00158701
0.00999051 0.00715337 0.00712028
0.00286436 0.00334888 0.0100004
0.00996685 0.00140507 0.00417995
0.00803597 0.00194013 0.00198291
0.00838771 0.00349909 0.00400256
0.00372441 0.00164735 0.00412908
0.0015095 0.00999966 0.00581512
0.0028073 -3.95585e-06 0.00712819
0.00610527 0.00416975 0.00837864
0.00999259 0.00724544 0.00420015
0.00852497 -2.50459e-05 0.00417188
0.00334285 0.0028692 8.98086e-07
0.00269691 0.00153846 0.0100004
0.00281733 -4.28653e-06 0.00283248
0.00479524 0.00519307 0.0075559
0.00315775 0.00314584 0.0031679
0 0.00849157 0.00581511
0.00486411 0.00366846 0.00378763
0.00153729 0.00270859 1.28816e-07
0.00579596 0.00831428 0.010001
0.00598304 0.00998766 0.00850767
0.00421298 0.00999325 0.00831874
0.00401532 0.00849742 0.0100003
0.00999701 0.00846279 0.00581909
0.00314792 0.00683317 0.00315143
0 0.00748929 0.00137438
0.0013741 0.00748898 5.62228e-08
0 0.00287343 0.00335182
0 0.00580816 0.00831736
0 0.00429792 0.00253898
0.00253475 0.00429563 5.83856e-07
0.00143292 0.0058191 0.01
0.00517397 0.00646739 0.00640178
0.00360141 0.00650886 0.00823482
0.00692546 0.00261081 0.0100018
0.00799326 0.00193695 0.00803836
0.00693998 -1.85108e-05 0.00308481
0.00599925 0.00165081 0.00361493
0.00997358 0.00284348 0.00335679
0 0.00140616 0.00256446
0.00637226 0.00821482 0.0064229
0.00579765 0.00142176 2.64519e-06
0.0060228 0.00353935 0.00160566
0.00315757 0.00999598 0.00582574
0.00856217 0.00997709 0.0058363
0.00255452 0.00140266 6.464e-07
0.00594939 -1.46553e-05 0.00149698
0.00628172 0.0082749 0.00361935
0.00851876 -2.48766e-05 0.00583682
0.00618277 0.00165882 0.0063672
0.00140117 0.00256402 0.0100001
0.00711498 0.00716555 3.15505e-06
0.00516729 0.00768104 0.00217056
0.0059383 0.00608227 0.00160417
0 0.00686719 0.00578184
0.00996762 0.00137519 0.00256967
0.00177152 0.00360977 0.00640804
0.00999891 0.00845782 0.00262842
0.00840298 0.00616754 0.00413624
0.00598676 0.00998697 0.00149601
0.00693652 -1.83193e-05 0.00692876
0.00996592 0.00140486 0.00582404
0.00837572 0.00355104 0.00606415
0.00150101 -8.19841e-07 0.0058153
0 0.0013659 0.00748679
0.00136274 -7.26237e-07 0.00752896
0.00998987 0.00683861 0.0057859
0.00581943 0.00847968 2.27566e-06
0 0.0075208 0.00859127
0.00136435 0.00748631 0.01
0.00423211 0.00819947 0.00362913
0.00859402 0.00997693 0.007515
0.00999672 0.0086016 0.00753002
0.00574866 0.00157408 0.0100012
0.00723914 0.00417125 0.0100019
0 0.0057735 0.00666667
0.00137019 0.00999961 0.00752899
0 0.00863025 0.00752641
0.00855256 -2.54662e-05 0.00251163
0.00999208 0.00692475 0.00263373
0.00845195 0.00632003 0.00216669
0.0084939 0.00580201 0.0100024
0.00745795 0.00135449 0.0100019
0.00855052 -2.51619e-05 0.00751503
0.00996465 0.0013353 0.00749065
0 0.00143551 0.00581971
0.00594617 -1.4323e-05 0.00850742
0.00419166 -8.6087e-06 0.00340104
0.007921 0.00468761 0.00203799
0.00998029 0.00426855 0.00254395
0.00423161 0.00999299 0.00666727
0.002838 0.00999697 0.00283236
0.00130667 -6.5402e-07 0.00241837
0 0.00727418 0.00419576
0.00998446 0.00574491 0.00667056
0.00698009 0.00998328 0.00308402
0.00750413 0.0086189 0.0100019
0 0.00574334 0.00336387
0 0.0043297 0.00416652
0.00685664 0.00576944 0.0100017
0.00997215 0.00299261 0.00691926
0.00420274 -8.47722e-06 0.00666754
0.00247986 0.00999744 0.00861184
0.00746043 0.00134549 3.79514e-06
0.0057661 0.00665615 0.0100011
0.00999123 0.00749234 0.00859467
0.00860006 0.00753132 0.0100024
0.00689667 0.0030054 3.4446e-06
0.00336078 0.00574003 1.05101e-06
0.00753041 0.00861169 3.35986e-06
0.00752321 0.0099808 0.00139045
0.00578025 0.00685612 2.33267e-06
0.00696897 0.00635541 0.00303598
0.00748178 -2.11134e-05 0.00139138
0.0028778 0.00499673 0.0100004
0.00432173 0.00582786 0.0100007
0.00431723 0.00416066 0.0100008
0.00751917 0.00998136 0.00861815
0.00246246 -3.41363e-06 0.00861196
0.00998619 0.00571445 0.0033686
0 0.00302218 0.00691532
0.00997563 0.00398875 0.00850573
0.00848499 0.00399455 4.41503e-06
0.00997391 0.00267887 0.00154697
0 0.00244495 0.00857025
0.00244441 0.00856782 0.0100001
0.00747796 -2.07726e-05 0.00861789
0.00845814 0.00260076 0.0100024
0.00882826 0.00417001 0.0100026
0.00567568 0.00998838 0.00583462
0.00518482 0.00757465 0.00503356
0.00564886 0.00998833 0.00421663
0.00697654 0.00998362 0.00692847
0.00301838 0.00691303 0.0100003
0.00415896 0.00432392 1.64348e-06
0.00281998 -4.49453e-06 0.00440519
0.00313558 -5.02233e-06 0.00582607
0.00998066 0.00416576 0.00113042
0.00363982 0.0083326 0.00158927
0.00997951 0.00430049 0.0041712
0.00665978 0.00575902 3.09478e-06
0.00859626 0.00997658 0.00251066
0 0.00848692 0.00262374
0.00135234 0.00999961 0.00405996
0 0.00885053 0.00419359
0.00419819 0.00884353 1.45135e-06
0.00421141 0.00999274 0.00168889
0.00499045 0.00478344 0.00238049
0.00720662 0.00450441 3.55558e-06
0.00561379 -1.3487e-05 0.00421738
0.00564064 -1.34557e-05 0.00583499
0.0013141 0.00999962 0.0024181
0.00854614 0.00242074 4.53073e-06
0.00997859 0.00449286 0.0072234
0.00712101 0.00998293 0.00500243
0.0057243 0.00335273 0.0100012
0.00244524 -3.40462e-06 0.00135711
0.00996868 0.00241499 0.0085739
0.00239129 0.00478956 0.00500026
0.00582192 0.00431845 2.75713e-06
0.00830839 0.00578646 4.11431e-06
0.00548394 0.00998923 0.00722167
0.00997851 0.00430107 0.00583754
0.00540983 0.00998903 0.00277705
0.0070805 -1.89017e-05 0.00500309
0.00284002 0.00999699 0.00440472
0 0.00452174 0.00721958
0.00451676 0.00721365 0.0100006
0.0054495 -1.26032e-05 0.00722155
0.00359783 0.00506996 0.0035972
0.00425727 0.0099929 0.0050089
0.0042276 -8.62905e-06 0.00500947
0.00366507 0.00521294 0.00617522
0 0.005744 0.00499998
0 0.00433013 0.00583333
0.00499509 0.00573619 2.15174e-06
0.00498073 0.00633132 0.00355511
0.00537527 -1.27026e-05 0.00277797
0.00998526 0.00571529 0.00500431
0.0036876 0.00640388 0.00484451
0.00573079 0.00498986 0.0100012
0.00998737 0.00574523 0.00159207
0 0.00666667 0
0.00858945 0.007498 4.07318e-06
0.00331661 -6.64572e-06 1.6774e-06
0 0.01 0.00666667
0.00500358 0.00999048 0.010001
0 0.00288419 0.00499914
0.0099952 0.00746031 0.00137936
0.00999234 0.00663755 5.11607e-06
0 0.005 0.01
0.00498463 0.00287473 2.06715e-06
0 0.005 0
0.00996105 -3.15588e-05 0.00333849
0.0100033 0.00997068 0.00667033
0.00419587 0.00726829 1.50691e-06
0.00997259 0.00285447 0.00500368
0.00497636 -1.19201e-05 2.57312e-06
0 0 0.00666667
0.00378914 0.00361208 0.005227
0.00497251 -1.14169e-05 0.0100006
0.00995917 -3.12996e-05 0.00667073
0 0 0.005
0.00878804 0.00997558 0.00122401
0.0100011 0.00875054 0.00122495
0.00996009 -3.13666e-05 0.00500465
0.0099849 0.00497052 5.30638e-06
0.0012156 0.00121915 4.32542e-08
0 0.00122008 0.00122008
0 0.00333333 0.01
0 0.00666667 0.01
0.0087834 0.00875587 4.05808e-06
0.0100052 0.00997038 0.00333764
0.00422115 0.00999283 0.00340038
0.00998663 0.00663833 0.0100033
0 0.00333333 0
0 0.00122008 0.00877992
0.00121394 -9.16316e-07 0.0087798
0.0012151 0.00121945 0.0100002
0.0087836 0.00997605 0.00878279
0.00121941 0.00877935 0.00999998
0 0.00877992 0.00877992
0.00999677 0.00875116 0.00878334
0.00667644 0.00998411 2.50317e-06
0.00996751 0.00118881 0.00122557
0.00122068 0.00999942 0.00878028
0.00877774 0.00875645 0.0100026
0.00997917 0.00497131 0.0100033
0 0 0.00333333
0.00663691 -1.78818e-05 3.72257e-06
0.00874417 -2.65447e-05 0.00122504
0.00120577 -8.81148e-07 0.00121224
0 0.00877992 0.00122008
0.00122061 0.00877939 1.63696e-07
0.0012129 0.00999945 0.00121152
0.00996321 0.00118933 0.00878338
0.00874448 0.00119457 0.0100025
0.00663218 -1.73717e-05 0.0100012
0.0087501 0.00119403 4.77691e-06
0.00873996 -2.61148e-05 0.00878244
0.00997758 0.00330324 5.4436e-06
0.00333624 0.00999493 0.0100007
0.00246343 0.00999757 0.00135672
0.00667107 0.00998467 0.0100018
0.00997178 0.00330411 0.0100033
0 0.01 0.005
0.00262601 0.0084844 6.53712e-07
0.0100042 0.00997054 0.00500402
0 0.01 0.00333333
0 0.00166667 0
0.00996199 -3.18117e-05 0.00167226
0 0.00166667 0.01
0 0.00833333 0
0.0099998 0.00830399 4.88603e-06
0.00995824 -3.14129e-05 0.00833677
0.0100062 0.00997017 0.00167135
0.0100023 0.0099707 0.00833689
0.00166825 0.00999836 0.0100002
0 0.01 0.00833333
0.00834256 0.00997732 3.65869e-06
0.00829934 -2.49092e-05 4.68217e-06
0.00829392 -2.44535e-05 0.0100021
0.00833674 0.00997775 0.0100025
0 0 0.00833333
0.00999412 0.00830468 0.0100033
0.00165778 -2.25808e-06 4.81729e-07
0 0 0.00166667
0.00334045 0.00999519 9.03785e-07
0.00996447 0.00163604 0.0100033
0.00997019 0.0016355 5.53821e-06
0.00165725 -1.91138e-06 0.0100003
0.00166986 0.00999869 3.01816e-07
0 0.01 0.00166667
0.0100015 0.00997064 0.0100034
0 0 0.01
0.0100072 0.00997004 4.65439e-06
0.00995723 -3.15061e-05 0.010003
0 0.01 0.01
0.00996288 -3.20681e-05 5.7727e-06
0 0.01 0
0 0 0
0.00500889 0.00998998 1.63257e-06
0.00331401 -5.95213e-06 0.0100002
0 0.00833333 0.01

CELLS 343 686
1 0
1 1
1 2
1 3
1 4
1 5
1 6
1 7
1 8
1 9
1 10
1 11
1 12
1 13
1 14
1 15
1 16
1 17
1 18
1 19
1 20
1 21
1 22
1 23
1 24
1 25
1 26
1 27
1 28
1 29
1 30
1 31
1 32
1 33
1 34
1 35
1 36
1 37
1 38
1 39
1 40
1 41
1 42
1 43
1 44
1 45
1 46
1 47
1 48
1 49
1 50
1 51
1 52
1 53
1 54
1 55
1 56
1 57
1 58
1 59
1 60
1 61
1 62
1 63
1 64
1 65
1 66
1 67
1 68
1 69
1 70
1 71
1 72
1 73
1 74
1 75
1 76
1 77
1 78
1 79
1 80
1 81
1 82
1 83
1 84
1 85
1 86
1 87
1 88
1 89
1 90
1 91
1 92
1 93
1 94
1 95
1 96
1 97
1 98
1 99
1 100
1 101
1 102
1 103
1 104
1 105
1 106
1 107
1 108
1 109
1 110
1 111
1 112
1 113
1 114
1 115
1 116
1 117
1 118
1 119
1 120
1 121
1 122
1 123
1 124
1 125
1 126
1 127
1 128
1 129
1 130
1 131
1 132
1 133
1 134
1 135
1 136
1 137
1 138
1 139
1 140
1 141
1 142
1 143
1 144
1 145
1 146
1 147
1 148
1 149
1 150
1 151
1 152
1 153
1 154
1 155
1 156
1 157
1 158
1 159
1 160
1 161
1 162
1 163
1 164
1 165
1 166
1 167
1 168
1 169
1 170
1 171
1 172
1 173
1 174
1 175
1 176
1 177
1 178
1 179
1 180
1 181
1 182
1 183
1 184
1 185
1 186
1 187
1 188
1 189
1 190
1 191
1 192
1 193
1 194
1 195
1 196
1 197
1 198
1 199
1 200
1 201
1 202
1 203
1 204
1 205
1 206
1 207
1 208
1 209
1 210
1 211
1 212
1 213
1 214
1 215
1 216
1 217
1 218
1 219
1 220
1 221
1 222
1 223
1 224
1 225
1 226
1 227
1 228
1 229
1 230
1 231
1 232
1 233
1 234
1 235
1 236
1 237
1 238
1 239
1 240
1 241
1 242
1 243
1 244
1 245
1 246
1 247
1 248
1 249
1 250
1 251
1 252
1 253
1 254
1 255
1 256
1 257
1 258
1 259
1 260
1 261
1 262
1 263
1 264
1 265
1 266
1 267
1 268
1 269
1 270
1 271
1 272
1 273
1 274
1 275
1 276
1 277
1 278
1 279
1 280
1 281
1 282
1 283
1 284
1 285
1 286
1 287
1 288
1 289
1 290
1 291
1 292
1 293
1 294
1 295
1 296
1 297
1 298
1 299
1 300
1 301
1 302
1 303
1 304
1 305
1 306
1 307
1 308
1 309
1 310
1 311
1 312
1 313
1 314
1 315
1 316
1 317
1 318
1 319
1 320
1 321
1 322
1 323
1 324
1 325
1 326
1 327
1 328
1 329
1 330
1 331
1 332
1 333
1 334
1 335
1 336
1 337
1 338
1 339
1 340
1 341
1 342

CELL_TYPES 343
1
1
1
1
1
1
1
1
1
1
1
1
1
1
1
1
1
1
1
1
1
1
1
1
1
1
1
1
1
1
1
1
1
1
1
1
1
1
1
1
1
1
1
1
1
1
1
1
1
1
1
1
1
1
1
1
1
1
1
1
1
1
1
1
1
1
1
1
1
1
1
1
1
1
1
1
1
1
1
1
1
1
1
1
1
1
1
1
1
1
1
1
1
1
1
1
1
1
1
1
1
1
1
1
1
1
1
1
1
1
1
1
1
1
1
1
1
1
1
1
1
1
1
1
1
1
1
1
1
1
1
1
1
1
1
1
1
1
1
1
1
1
1
1
1
1
1
1
1
1
1
1
1
1
1
1
1
1
1
1
1
1
1
1
1
1
1
1
1
1
1
1
1
1
1
1
1
1
1
1
1
1
1
1
1
1
1
1
1
1
1
1
1
1
1
1
1
1
1
1
1
1
1
1
1
1
1
1
1
1
1
1
1
1
1
1
1
1
1
1
1
1
1
1
1
1
1
1
1
1
1
1
1
1
1
1
1
1
1
1
1
1
1
1
1
1
1
1
1
1
1
1
1
1
1
1
1
1
1
1
1
1
1
1
1
1
1
1
1
1
1
1
1
1
1
1
1
1
1
1
1
1
1
1
1
1
1
1
1
1
1
1
1
1
1
1
1
1
1
1
1
1
1
1
1
1
1
1
1
1
1
1
1
1
1
1
1
1
1
1
1
1
1
1
1
1
1
1
1
1
1
1
1
1
1
1
1
1
1
1
1
1
1

POINT_DATA 343
FIELD FieldData 3

ExternalForceID_(#) 1 343 int
0
1
2
3
4
5
6
7
8
9
10
11
12
13
14
15
16
17
18
19
20
21
22
23
24
25
26
27
28
29
30
31
32
33
34
35
36
37
38
39
40
41
42
43
44
45
46
47
48
49
50
51
52
53
54
55
56
57
58
59
60
61
62
63
64
65
66
67
68
69
70
71
72
73
74
75
76
77
78
79
80
81
82
83
84
85
86
87
88
89
90
91
92
93
94
95
96
97
98
99
100
101
102
103
104
105
106
107
108
109
110
111
112
113
114
115
116
117
118
119
120
121
122
123
124
125
126
127
128
129
130
131
132
133
134
135
136
137
138
139
140
141
142
143
144
145
146
147
148
149
150
151
152
153
154
155
156
157
158
159
160
161
162
163
164
165
166
167
168
169
170
171
172
173
174
175
176
177
178
179
180
181
182
183
184
185
186
187
188
189
190
191
192
193
194
195
196
197
198
199
200
201
202
203
204
205
206
207
208
209
210
211
212
213
214
215
216
217
218
219
220
221
222
223
224
225
226
227
228
229
230
231
232
233
234
235
236
237
238
239
240
241
242
243
244
245
246
247
248
249
250
251
252
253
254
255
256
257
258
259
260
261
262
263
264
265
266
267
268
269
270
271
272
273
274
275
276
277
278
279
280
281
282
283
284
285
286
287
288
289
290
291
292
293
294
295
296
297
298
299
300
301
302
303
304
305
306
307
308
309
310
311
312
313
314
315
316
317
318
319
320
321
322
323
324
325
326
327
328
329
330
331
332
333
334
335
336
337
338
339
340
341
342

ExternalForceType_(0/1/2/3/4) 1 343 int
0
0
0
0
0
0
0
0
0
0
0
0
0
0
0
0
0
0
0
0
0
0
0
0
0
0
0
0
0
0
0
0
0
0
0
0
0
0
0
0
0
0
0
0
0
0
0
0
0
0
0
0
0
0
0
0
0
0
0
0
0
0
0
0
0
0
0
0
0
0
0
0
0
0
0
0
0
0
0
0
0
0
0
0
0
0
0
0
0
0
0
0
0
0
0
0
0
0
0
0
0
0
0
0
0
0
0
0
0
0
0
0
0
0
0
0
0
0
0
0
0
0
0
0
0
0
0
0
0
0
0
0
0
0
0
0
0
0
0
0
0
0
0
0
0
0
0
0
0
0
0
0
0
0
0
0
0
0
0
0
0
0
0
0
0
0
0
0
0
0
0
0
0
0
0
0
0
0
0
0
0
0
0
0
0
0
0
0
0
0
0
0
0
0
0
0
0
0
0
0
0
0
0
0
0
0
0
0
0
0
0
0
0
0
0
0
0
0
0
0
0
0
0
0
0
0
0
0
0
0
0
0
0
0
0
0
0
0
0
0
0
0
0
0
0
0
0
0
0
0
0
0
0
0
0
0
0
0
0
0
0
0
0
0
0
0
0
0
0
0
0
0
0
0
0
0
0
0
0
0
0
0
0
0
0
0
0
0
0
0
0
0
0
0
0
0
0
0
0
0
0
0
0
0
0
0
0
0
0
0
0
0
0
0
0
0
0
0
0
0
0
0
0
0
0
0
0
0
0
0
0
0
0
0
0
0
0
0
0
0
0
0
0

ExternalForce_(N) 3 343 double
0 -3.09568e-05 0
0 -0.000138619 0
0 -2.16714e-05 0
0 -0.000168226 0
0 -8.26002e-05 0
0 -8.9203e-05 0
0 -9.74165e-05 0
0 -7.37906e-05 0
0 -6.68156e-05 0
0 -5.47617e-05 0
0 -3.04981e-05 0
0 -0.000105531 0
0 -4.77758e-05 0
0 -0.000161821 0
0 -2.96713e-05 0
0 -7.9067e-05 0
0 -6.57564e-05 0
0 -0.000106704 0
0 -4.11017e-05 0
0 -8.006e-05 0
0 -6.02474e-05 0
0 -0.000115662 0
0 -2.18875e-05 0
0 -4.17098e-05 0
0 -0.000107827 0
0 -7.27379e-05 0
0 -4.13856e-05 0
0 -3.85027e-05 0
0 -3.029e-05 0
0 -0.000128774 0
0 -7.57947e-05 0
0 -0.000162261 0
0 -0.000116775 0
0 -7.15802e-05 0
0 -3.74431e-05 0
0 -0.000108892 0
0 -3.74072e-05 0
0 -0.000136493 0
0 -6.25303e-05 0
0 -7.85756e-05 0
0 -7.52544e-05 0
0 -0.000116589 0
0 -0.000160874 0
0 -2.73339e-05 0
0 -8.7662e-05 0
0 -2.53184e-05 0
0 -7.42972e-05 0
0 -4.15199e-05 0
0 -0.000128792 0
0 -3.72945e-05 0
0 -2.72189e-05 0
0 -7.03157e-05 0
0 -0.000119003 0
0 -5.02041e-05 0
0 -8.04153e-05 0
0 -4.4939e-05 0
0 -2.74192e-05 0
0 -3.19929e-05 0
0 -4.04607e-05 0
0 -2.07889e-05 0
0 -3.28809e-05 0
0 -3.54797e-05 0
0 -0.000153858 0
0 -7.19739e-05 0
0 -8.09026e-05 0
0 -4.90862e-05 0
0 -2.77255e-05 0
0 -7.06591e-05 0
0 -3.20606e-05 0
0 -4.10794e-05 0
0 -1.98932e-05 0
0 -2.37551e-05 0
0 -3.0591e-05 0
0 -5.86107e-05 0
0 -5.75946e-05 0
0 -4.01595e-05 0
0 -5.35099e-05 0
0 -2.24477e-05 0
0 -4.41213e-05 0
0 -4.29866e-05 0
0 -4.42325e-05 0
0 -4.30889e-05 0
0 -4.19155e-05 0
0 -5.21923e-05 0
0 -1.5029e-05 0
0 -2.34331e-05 0
0 -1.9903e-05 0
0 -4.30461e-05 0
0 -3.11931e-05 0
0 -3.08326e-05 0
0 -4.52797e-05 0
0 -5.7648e-05 0
0 -8.02544e-05 0
0 -2.43623e-05 0
0 -0.000150893 0
0 -3.43039e-05 0
0 -7.21258e-05 0
0 -1.97489e-05 0
0 -2.00202e-05 0
0 -7.83017e-05 0
0 -4.32908e-05 0
0 -7.00326e-05 0
0 -1.17841e-05 0
0 -4.93779e-05 0
0 -1.58193e-05 0
0 -4.04762e-05 0
0 -8.57147e-05 0
0 -4.2953e-05 0
0 -7.82027e-05 0
0 -2.09499e-05 0
0 -3.31713e-05 0
0 -9.30599e-05 0
0 -7.26197e-05 0
0 -1.76801e-05 0
0 -2.06228e-05 0
0 -7.8371e-05 0
0 -1.84411e-05 0
0 -7.30662e-05 0
0 -4.11806e-05 0
0 -2.3265e-05 0
0 -4.23503e-05 0
0 -5.94919e-05 0
0 -4.22718e-05 0
0 -2.12723e-05 0
0 -1.86252e-05 0
0 -1.77849e-05 0
0 -3.82356e-05 0
0 -2.39658e-05 0
0 -1.62481e-05 0
0 -7.86148e-05 0
0 -1.61387e-05 0
0 -2.34763e-05 0
0 -2.95637e-05 0
0 -2.93742e-05 0
0 -1.33947e-05 0
0 -1.83735e-05 0
0 -2.05639e-05 0
0 -1.91062e-05 0
0 -1.84053e-05 0
0 -6.25793e-05 0
0 -4.49914e-05 0
0 -1.98914e-05 0
0 -1.58922e-05 0
0 -2.367e-05 0
0 -3.81266e-05 0
0 -4.36518e-05 0
0 -2.25472e-05 0
0 -0.000115119 0
0 -3.05886e-05 0
0 -1.32828e-05 0
0 -3.38507e-05 0
0 -1.78391e-05 0
0 -2.88237e-05 0
0 -1.34771e-05 0
0 -2.36876e-05 0
0 -2.06453e-05 0
0 -2.58912e-05 0
0 -2.10097e-05 0
0 -1.7602e-05 0
0 -3.13896e-05 0
0 -1.34386e-05 0
0 -2.38863e-05 0
0 -2.04203e-05 0
0 -1.33426e-05 0
0 -2.13076e-05 0
0 -1.86316e-05 0
0 -3.10974e-05 0
0 -2.56228e-05 0
0 -2.33161e-05 0
0 -1.57181e-05 0
0 -1.87061e-05 0
0 -5.38771e-05 0
0 -1.84308e-05 0
0 -3.08341e-05 0
0 -2.91652e-05 0
0 -1.16203e-05 0
0 -1.85667e-05 0
0 -2.00287e-05 0
0 -2.68375e-05 0
0 -2.37799e-05 0
0 -3.16945e-05 0
0 -3.13676e-05 0
0 -3.15313e-05 0
0 -1.90796e-05 0
0 -1.58134e-05 0
0 -1.83326e-05 0
0 -3.16308e-05 0
0 -2.07128e-05 0
0 -2.91276e-05 0
0 -6.03597e-05 0
0 -2.26581e-05 0
0 -2.35174e-05 0
0 -2.33506e-05 0
0 -2.59482e-05 0
0 -1.63393e-05 0
0 -1.78912e-05 0
0 -2.02658e-05 0
0 -5.62379e-05 0
0 -2.04507e-05 0
0 -2.14176e-05 0
0 -2.38895e-05 0
0 -3.05955e-05 0
0 -3.11287e-05 0
0 -2.01544e-05 0
0 -1.92198e-05 0
0 -2.99909e-05 0
0 -6.32085e-05 0
0 -2.04829e-05 0
0 -2.67435e-05 0
0 -2.11611e-05 0
0 -1.83262e-05 0
0 -1.96474e-05 0
0 -2.0699e-05 0
0 -2.83503e-05 0
0 -2.27807e-05 0
0 -2.35234e-05 0
0 -1.93874e-05 0
0 -6.29086e-05 0
0 -2.12117e-05 0
0 -3.22943e-05 0
0 -2.06229e-05 0
0 -2.61501e-05 0
0 -1.90721e-05 0
0 -2.86319e-05 0
0 -2.53212e-05 0
0 -2.07681e-05 0
0 -2.05553e-05 0
0 -1.88077e-05 0
0 -6.92631e-05 0
0 -2.20924e-05 0
0 -2.02457e-05 0
0 -6.16224e-05 0
0 -2.08117e-05 0
0 -2.85397e-05 0
0 -2.08875e-05 0
0 -6.32617e-05 0
0 -1.39008e-05 0
0 -2.0289e-05 0
0 -6.45558e-05 0
0 -2.47785e-05 0
0 -2.35177e-05 0
0 -7.28089e-06 0
0 -2.18143e-05 0
0 -6.93323e-06 0
0 -6.87344e-06 0
0 -8.76768e-06 0
0 -2.48719e-05 0
0 -2.22231e-05 0
0 -1.31068e-05 0
0 -7.69816e-06 0
0 -2.27889e-05 0
0 -5.95166e-06 0
0 -6.55579e-06 0
0 -6.71305e-06 0
0 -2.46468e-05 0
0 -2.27228e-05 0
0 -7.6878e-06 0
0 -6.67903e-06 0
0 -6.10861e-05 0
0 -6.6189e-06 0
0 -6.52665e-06 0
0 -6.87836e-06 0
0 -1.78856e-05 0
0 -1.87072e-05 0
0 -6.73674e-06 0
0 -6.91401e-06 0
0 -1.82903e-05 0
0 -2.2423e-05 0
0 -6.67521e-06 0
0 -7.02401e-06 0
0 -1.78908e-05 0
0 -5.89658e-06 0
0 -1.98938e-05 0
0 -7.3162e-06 0
0 -5.63509e-06 0
0 -1.76631e-05 0
0 -1.42638e-05 0
0 -2.22707e-05 0
0 -1.77204e-05 0
0 -2.11264e-05 0
0 -1.75686e-05 0
0 -1.76047e-05 0
0 -6.69346e-06 0
0 -2.20467e-05 0
0 -1.42479e-05 0
0 -1.76144e-05 0
0 -6.84615e-06 0
0 -6.12404e-06 0
0 -6.50125e-06 0
0 -1.41879e-05 0
0 -1.37476e-05 0
0 -2.11168e-05 0
0 -1.79377e-05 0
0 -1.37282e-05 0
0 -1.41198e-05 0
0 -2.15061e-05 0
0 -6.84475e-06 0
0 -1.74349e-05 0
0 -1.75758e-05 0
0 -6.41828e-06 0
0 -7.20025e-06 0
0 -2.30432e-05 0
0 -6.96894e-06 0
0 -6.44499e-06 0
0 -6.14414e-06 0
0 -2.14766e-05 0
0 -6.00855e-06 0
0 -5.92427e-06 0
0 -5.81567e-06 0
0 -5.02303e-06 0
0 -5.01945e-06 0
0 -4.85271e-06 0
0 -4.87573e-06 0
0 -4.8684e-06 0
0 -5.22951e-06 0
0 -4.84801e-06 0
0 -4.88396e-06 0
0 -4.77612e-06 0
0 -4.81304e-06 0
0 -4.85251e-06 0
0 -4.8555e-06 0
0 -4.82575e-06 0
0 -4.80313e-06 0
0 -4.86923e-06 0
0 -4.85781e-06 0
0 -4.73027e-06 0
0 -1.08748e-05 0
0 -5.22863e-06 0
0 -5.34413e-06 0
0 -5.26459e-06 0
0 -5.05624e-06 0
0 -4.92238e-06 0
0 -5.43253e-06 0
0 -5.43253e-06 0
0 -5.43253e-06 0
0 -5.43253e-06 0
0 -5.43253e-06 0
0 -5.43253e-06 0
0 -5.40321e-06 0
0 -5.40321e-06 0
0 -7.3113e-06 0
0 -6.98147e-06 0
0 -4.8949e-06 0

