# vtk DataFile Version 4.2
vtk output
ASCII
DATASET UNSTRUCTURED_GRID

POINTS 343 double
0.00115257 0.0041957 -8.65943e-07
0.00222956 0.00498378 0.00217348
0 0.00419538 0.00112517
0.00197975 0.00195542 0.00194058
0.00530634 0.00240442 0.00502758
0.00531331 0.00382855 0.00639102
0.00784476 0.00476716 0.00499166
0.00640229 0.0048463 0.00368791
0.00702739 0.00328252 0.00690429
0.00513002 0.00499145 0.00499523
0.00429051 0.00111583 0.00999207
0.00542124 0.0020771 0.00789591
0.00429646 -9.95263e-06 0.00831071
0.00206417 0.00200375 0.00803151
0.00440227 0.00253195 0.00999203
0.00716381 0.00644051 0.00693659
0.00660198 0.00617771 0.00517658
0.00231894 0.00218582 0.00514396
0 0.00143586 0.00417514
0.00163634 0.00346738 0.00403544
0.00702891 0.00318763 0.00315832
0.00796154 0.00220371 0.0050566
0 0.00270918 0.00154168
0.00426954 0.00142611 -6.80273e-07
0.00514157 0.00218482 0.00219661
0.00407098 0.00352667 0.00160179
0.00137845 2.27527e-07 0.00405877
0.00428997 -1.03776e-05 0.00168707
0.00270201 0.00695285 -9.69895e-07
0.00199243 0.00805408 0.00194333
0.00420485 0.00624864 0.00164367
0.00825271 0.00797438 0.00798325
0.00819908 0.00480613 0.00800836
0.00864302 0.00606783 0.00593777
0.0103268 0.00880408 0.00418346
0.00781054 0.00762576 0.00495626
0.00884738 0.0099617 0.0041593
0.00822748 0.00795896 0.00201373
0.00362959 0.00303701 0.00695558
0.00455842 0.00366176 0.0083174
0.00399155 0.00159949 0.00596506
0.00515382 0.00766621 0.00766933
0.00204459 0.00800931 0.00798755
0.0029122 0.00999687 0.00712394
0.00403129 0.00839871 0.00595357
0 0.00695361 0.00262895
0.00169115 0.00624032 0.00408644
0 0.0040177 0.00850214
0.00237752 0.00498704 0.00765915
0.00147177 0.00417541 0.00999846
0.00739508 0.00711009 0.00998308
0.00629746 0.00596696 0.00840677
0.00210852 0.00794298 0.00473991
0.0031284 0.00694444 0.0064647
0.00162983 0.00607948 0.00592448
0.0103014 0.00576595 0.00829685
0 0.00718191 0.00711644
0.00162826 0.00577446 -1.17441e-06
0 0.00577432 0.00158701
0.0103127 0.00713806 0.00709866
0.00294613 0.00335023 0.00999552
0.0102631 0.00139197 0.00416628
0.00826247 0.00193237 0.00197747
0.00863314 0.00349077 0.00399232
0.00382059 0.0016471 0.00412524
0.00155231 0.0100008 0.00581348
0.00287794 -3.96034e-06 0.00712495
0.00628229 0.00416786 0.00836545
0.0103124 0.00722913 0.00418582
0.00876314 -3.40239e-05 0.0041612
0.00343349 0.00286998 -9.47368e-07
0.00277156 0.00153906 0.00999575
0.00288719 -4.49274e-06 0.00282972
0.0049323 0.0051936 0.00754722
0.00324156 0.0031472 0.00316462
0 0.00849157 0.00581511
0.004997 0.00366827 0.00378282
0.00157774 0.0027098 -1.21653e-06
0.00597885 0.00831111 0.00998655
0.00617524 0.00998188 0.00849423
0.00434385 0.00999132 0.00831088
0.00413898 0.00849702 0.00999162
0.0103238 0.00844613 0.00580055
0.0032353 0.00683487 0.00314823
0 0.00748929 0.00137438
0.00141187 0.00749027 -1.17481e-06
0 0.00287343 0.00335182
0 0.00580816 0.00831736
0 0.00429792 0.00253898
0.00260421 0.00429691 -9.70303e-07
0.00147296 0.00582031 0.00999845
0.00532479 0.00646697 0.00639357
0.00370532 0.0065107 0.00822858
0.00712727 0.00260642 0.00998469
0.00822349 0.00192976 0.00802007
0.00712637 -2.47002e-05 0.00307911
0.00616121 0.00164737 0.00360953
0.0102749 0.00283056 0.00334519
0 0.00140616 0.00256446
0.0065679 0.00821043 0.00641153
0.00595417 0.00141793 4.04935e-07
0.00619086 0.00353669 0.00160222
0.00325169 0.00999554 0.00582184
0.0088419 0.00996211 0.00582097
0.00262142 0.00140287 -8.78346e-07
0.00610623 -1.88318e-05 0.00149393
0.006473 0.0082704 0.00361274
0.0087581 -3.37071e-05 0.00582199
0.00635215 0.00165526 0.0063566
0.00143905 0.00256517 0.00999856
0.00733154 0.00715933 -1.42708e-07
0.00531987 0.00767942 0.00216679
0.00611145 0.0060804 0.00160059
0 0.00686719 0.00578184
0.0102631 0.00136193 0.00255973
0.00181886 0.00361107 0.00640623
0.0103241 0.00844065 0.00261765
0.00865915 0.00615861 0.00412539
0.00617477 0.00998029 0.00149206
0.00712582 -2.40392e-05 0.00691519
0.0102635 0.00139181 0.0058057
0.00862284 0.00354309 0.00604907
0.00153927 3.21882e-08 0.00581377
0 0.0013659 0.00748679
0.00139775 1.28607e-07 0.0075277
0.010309 0.00682318 0.00576775
0.00599718 0.00847556 -7.07542e-08
0 0.0075208 0.00859127
0.0014028 0.00748775 0.00999835
0.00435532 0.00819899 0.00362481
0.00887698 0.0099619 0.00749581
0.0103263 0.00858484 0.00750719
0.00591071 0.0015709 0.0099876
0.00745586 0.0041668 0.0099836
0 0.0057735 0.00666667
0.00140921 0.0100005 0.00752774
0 0.00863025 0.00752641
0.00879092 -3.49923e-05 0.00250461
0.0103098 0.00690854 0.00262303
0.0087097 0.00631022 0.00215975
0.00875879 0.00579329 0.00997979
0.00767331 0.00134761 0.00998285
0.00879303 -3.43153e-05 0.00749611
0.0102639 0.00132239 0.00746839
0 0.00143551 0.00581971
0.00610731 -1.81082e-05 0.00849426
0.00429776 -1.04251e-05 0.00339746
0.00815358 0.00468023 0.0020322
0.0102869 0.00425539 0.00253416
0.00436168 0.00999056 0.00666057
0.00292204 0.00999688 0.00282939
0.00133933 1.13924e-07 0.00241721
0 0.00727418 0.00419576
0.0102999 0.00573139 0.00665002
0.00720254 0.00997356 0.00307714
0.0077462 0.0086108 0.0099822
0 0.00574334 0.00336387
0 0.0043297 0.00416652
0.00706656 0.00576587 0.00998438
0.0102769 0.00298023 0.00689808
0.00431091 -1.01597e-05 0.0066612
0.00255498 0.00999727 0.00860808
0.00766811 0.00133824 6.63339e-07
0.00594262 0.0066545 0.00998694
0.0103169 0.00747709 0.00856978
0.00887604 0.00752105 0.0099792
0.00709098 0.00300062 5.96072e-07
0.00345531 0.00574169 -6.90634e-07
0.00776645 0.00860258 -3.92912e-07
0.00776458 0.00996873 0.00138502
0.00595158 0.00685381 -7.07147e-08
0.00717687 0.00635056 0.00302959
0.00768517 -2.88264e-05 0.00138732
0.00296128 0.00499866 0.00999523
0.00444952 0.00582928 0.00999114
0.00444207 0.00416191 0.0099915
0.00776509 0.00997036 0.0086
0.00252576 -3.19503e-06 0.00860861
0.0102986 0.00570084 0.0033567
0 0.00302218 0.00691532
0.0102861 0.0039765 0.00848144
0.00873555 0.00398555 8.66298e-07
0.0102742 0.00266561 0.00153942
0 0.00244495 0.00857025
0.00251788 0.00856868 0.00999557
0.00768698 -2.80029e-05 0.00859986
0.00871015 0.00259274 0.00997998
0.00909909 0.00416106 0.00997893
0.00585275 0.00998292 0.0058253
0.00533774 0.00757336 0.00502669
0.00582415 0.00998271 0.00420993
0.00720109 0.00997445 0.00691436
0.00310761 0.00691512 0.00999438
0.00427476 0.00432468 -1.48024e-07
0.00289025 -4.94353e-06 0.0044024
0.00321406 -5.50856e-06 0.00582265
0.0102869 0.00415229 0.00112357
0.00374585 0.0083325 0.00158668
0.0102868 0.00428733 0.00415702
0.0068557 0.00575502 4.48044e-07
0.00887569 0.00996084 0.00250203
0 0.00848692 0.00262374
0.00139035 0.0100006 0.00405848
0 0.00885053 0.00419359
0.00432422 0.00884196 -5.25268e-07
0.00433968 0.00999012 0.00168572
0.00512985 0.00478347 0.00237686
0.00741583 0.00449892 6.05965e-07
0.00576053 -1.73089e-05 0.00421187
0.00578919 -1.71775e-05 0.00582636
0.00135106 0.0100006 0.00241671
0.00879293 0.00241141 1.07986e-06
0.0102896 0.00448005 0.00720144
0.00734938 0.00997289 0.00499174
0.00589017 0.00335127 0.00998789
0.0025059 -3.29856e-06 0.00135536
0.0102733 0.00240246 0.00854964
0.00245606 0.00479101 0.00499777
0.00598705 0.00431648 5.37627e-07
0.00855971 0.00577695 2.46588e-07
0.00565639 0.00998456 0.00721171
0.0102872 0.00428812 0.00581928
0.0055773 0.00998392 0.00277203
0.00727246 -2.4959e-05 0.00499346
0.00292402 0.00999699 0.00440167
0 0.00452174 0.00721958
0.00465405 0.00721391 0.00999038
0.00559408 -1.58404e-05 0.00721144
0.00369608 0.00507133 0.00359352
0.00438678 0.00999024 0.00500356
0.00433467 -1.03442e-05 0.00500483
0.00376637 0.00521446 0.00617072
0 0.005744 0.00499998
0 0.00433013 0.00583333
0.00513872 0.00573622 2.31258e-07
0.00512337 0.00633131 0.0035504
0.00551521 -1.62343e-05 0.002774
0.0102987 0.00570213 0.00498795
0.00379043 0.00640541 0.00484041
0.00590134 0.00498923 0.00998761
0.0102998 0.00573111 0.00158435
0 0.00666667 0
0.00885814 0.00748674 -2.22681e-07
0.00340146 -8.09697e-06 4.617e-07
0 0.01 0.00666667
0.00516445 0.0099862 0.00998976
0 0.00288419 0.00499914
0.0103155 0.00744357 0.00137202
0.0103093 0.00662224 -4.80271e-07
0 0.005 0.01
0.00512108 0.00287354 -5.23555e-08
0 0.005 0
0.0102523 -4.38309e-05 0.00332709
0.0103395 0.0099492 0.00664918
0.0043182 0.00726854 -3.5445e-07
0.0102747 0.00284216 0.00498757
0.00510664 -1.53389e-05 8.48341e-07
0 0 0.00666667
0.00389105 0.00361328 0.00522265
0.00510836 -1.4689e-05 0.00998903
0.010253 -4.33632e-05 0.0066502
0 0 0.005
0.00907494 0.00995872 0.00121762
0.0103276 0.00873221 0.00121751
0.0102523 -4.34612e-05 0.00498857
0.0102951 0.00495637 2.2176e-07
0.00124693 0.00121974 -1.05202e-06
0 0.00122008 0.00122008
0 0.00333333 0.01
0 0.00666667 0.01
0.00906516 0.00874175 -6.29022e-07
0.0103389 0.00994836 0.00332473
0.00434913 0.00999019 0.00339609
0.010311 0.00662407 0.00997575
0 0.00333333 0
0 0.00122008 0.00877992
0.00124532 -3.61481e-07 0.00877821
0.00124752 0.00122026 0.0099989
0.00907545 0.00996028 0.00876075
0.001254 0.00878032 0.00999846
0 0.00877992 0.00877992
0.0103287 0.00873397 0.00875805
0.00688856 0.00997453 -1.38997e-06
0.0102619 0.00117538 0.00121882
0.00125591 0.00999997 0.00877901
0.00906568 0.00874349 0.00997882
0.0102964 0.0049583 0.0099759
0 0 0.00333333
0.00681502 -2.37378e-05 1.2881e-06
0.00898953 -3.67908e-05 0.0012202
0.00123598 -3.5413e-07 0.00121149
0 0.00877992 0.00122008
0.00125456 0.00878028 -8.87305e-07
0.0012473 0.0100001 0.00121019
0.0102634 0.00117634 0.00875838
0.00900164 0.00118459 0.00997894
0.00681739 -2.30754e-05 0.00998409
0.00899972 0.00118374 1.32587e-06
0.00899114 -3.59711e-05 0.00876027
0.010281 0.00328985 6.29927e-07
0.00344086 0.00999338 0.00999455
0.0025362 0.00999767 0.00135461
0.00688973 0.00997613 0.0099854
0.0102823 0.00329223 0.00997608
0 0.01 0.005
0.00270211 0.00848516 -9.39419e-07
0.0103389 0.00994867 0.0049876
0 0.01 0.00333333
0 0.00166667 0
0.0102526 -4.45653e-05 0.00166476
0 0.00166667 0.01
0 0.00833333 0
0.0103249 0.00828597 -5.34037e-07
0.010254 -4.38386e-05 0.00831239
0.0103395 0.00994807 0.00166267
0.0103404 0.00994953 0.00831233
0.00171856 0.00999814 0.00999792
0 0.01 0.00833333
0.0086139 0.00996158 -1.42441e-06
0.00853006 -3.44506e-05 1.44796e-06
0.00853219 -3.3875e-05 0.00997968
0.00861429 0.00996327 0.00998052
0 0 0.00833333
0.0103261 0.00828833 0.0099756
0.00169903 -2.15315e-06 -6.60413e-07
0 0 0.00166667
0.003442 0.00999394 -1.08093e-06
0.0102684 0.00162275 0.00997592
0.0102669 0.00162175 8.61406e-07
0.00170035 -1.61287e-06 0.00999802
0.00171872 0.00999901 -1.06439e-06
0 0.01 0.00166667
0.0103413 0.00994975 0.00997605
0 0 0.01
0.0103405 0.00994791 -1.45916e-06
0.0102548 -4.43186e-05 0.00997527
0 0.01 0.01
0.0102532 -4.4944e-05 1.23072e-06
0 0.01 0
0 0 0
0.00516459 0.0099851 -1.02139e-06
0.00340302 -7.24752e-06 0.00999334
0 0.00833333 0.01

CELLS 343 686
1 0
1 1
1 2
1 3
1 4
1 5
1 6
1 7
1 8
1 9
1 10
1 11
1 12
1 13
1 14
1 15
1 16
1 17
1 18
1 19
1 20
1 21
1 22
1 23
1 24
1 25
1 26
1 27
1 28
1 29
1 30
1 31
1 32
1 33
1 34
1 35
1 36
1 37
1 38
1 39
1 40
1 41
1 42
1 43
1 44
1 45
1 46
1 47
1 48
1 49
1 50
1 51
1 52
1 53
1 54
1 55
1 56
1 57
1 58
1 59
1 60
1 61
1 62
1 63
1 64
1 65
1 66
1 67
1 68
1 69
1 70
1 71
1 72
1 73
1 74
1 75
1 76
1 77
1 78
1 79
1 80
1 81
1 82
1 83
1 84
1 85
1 86
1 87
1 88
1 89
1 90
1 91
1 92
1 93
1 94
1 95
1 96
1 97
1 98
1 99
1 100
1 101
1 102
1 103
1 104
1 105
1 106
1 107
1 108
1 109
1 110
1 111
1 112
1 113
1 114
1 115
1 116
1 117
1 118
1 119
1 120
1 121
1 122
1 123
1 124
1 125
1 126
1 127
1 128
1 129
1 130
1 131
1 132
1 133
1 134
1 135
1 136
1 137
1 138
1 139
1 140
1 141
1 142
1 143
1 144
1 145
1 146
1 147
1 148
1 149
1 150
1 151
1 152
1 153
1 154
1 155
1 156
1 157
1 158
1 159
1 160
1 161
1 162
1 163
1 164
1 165
1 166
1 167
1 168
1 169
1 170
1 171
1 172
1 173
1 174
1 175
1 176
1 177
1 178
1 179
1 180
1 181
1 182
1 183
1 184
1 185
1 186
1 187
1 188
1 189
1 190
1 191
1 192
1 193
1 194
1 195
1 196
1 197
1 198
1 199
1 200
1 201
1 202
1 203
1 204
1 205
1 206
1 207
1 208
1 209
1 210
1 211
1 212
1 213
1 214
1 215
1 216
1 217
1 218
1 219
1 220
1 221
1 222
1 223
1 224
1 225
1 226
1 227
1 228
1 229
1 230
1 231
1 232
1 233
1 234
1 235
1 236
1 237
1 238
1 239
1 240
1 241
1 242
1 243
1 244
1 245
1 246
1 247
1 248
1 249
1 250
1 251
1 252
1 253
1 254
1 255
1 256
1 257
1 258
1 259
1 260
1 261
1 262
1 263
1 264
1 265
1 266
1 267
1 268
1 269
1 270
1 271
1 272
1 273
1 274
1 275
1 276
1 277
1 278
1 279
1 280
1 281
1 282
1 283
1 284
1 285
1 286
1 287
1 288
1 289
1 290
1 291
1 292
1 293
1 294
1 295
1 296
1 297
1 298
1 299
1 300
1 301
1 302
1 303
1 304
1 305
1 306
1 307
1 308
1 309
1 310
1 311
1 312
1 313
1 314
1 315
1 316
1 317
1 318
1 319
1 320
1 321
1 322
1 323
1 324
1 325
1 326
1 327
1 328
1 329
1 330
1 331
1 332
1 333
1 334
1 335
1 336
1 337
1 338
1 339
1 340
1 341
1 342

CELL_TYPES 343
1
1
1
1
1
1
1
1
1
1
1
1
1
1
1
1
1
1
1
1
1
1
1
1
1
1
1
1
1
1
1
1
1
1
1
1
1
1
1
1
1
1
1
1
1
1
1
1
1
1
1
1
1
1
1
1
1
1
1
1
1
1
1
1
1
1
1
1
1
1
1
1
1
1
1
1
1
1
1
1
1
1
1
1
1
1
1
1
1
1
1
1
1
1
1
1
1
1
1
1
1
1
1
1
1
1
1
1
1
1
1
1
1
1
1
1
1
1
1
1
1
1
1
1
1
1
1
1
1
1
1
1
1
1
1
1
1
1
1
1
1
1
1
1
1
1
1
1
1
1
1
1
1
1
1
1
1
1
1
1
1
1
1
1
1
1
1
1
1
1
1
1
1
1
1
1
1
1
1
1
1
1
1
1
1
1
1
1
1
1
1
1
1
1
1
1
1
1
1
1
1
1
1
1
1
1
1
1
1
1
1
1
1
1
1
1
1
1
1
1
1
1
1
1
1
1
1
1
1
1
1
1
1
1
1
1
1
1
1
1
1
1
1
1
1
1
1
1
1
1
1
1
1
1
1
1
1
1
1
1
1
1
1
1
1
1
1
1
1
1
1
1
1
1
1
1
1
1
1
1
1
1
1
1
1
1
1
1
1
1
1
1
1
1
1
1
1
1
1
1
1
1
1
1
1
1
1
1
1
1
1
1
1
1
1
1
1
1
1
1
1
1
1
1
1
1
1
1
1
1
1
1
1
1
1
1
1
1
1
1
1
1
1

POINT_DATA 343
FIELD FieldData 3

ExternalForceID_(#) 1 343 int
0
1
2
3
4
5
6
7
8
9
10
11
12
13
14
15
16
17
18
19
20
21
22
23
24
25
26
27
28
29
30
31
32
33
34
35
36
37
38
39
40
41
42
43
44
45
46
47
48
49
50
51
52
53
54
55
56
57
58
59
60
61
62
63
64
65
66
67
68
69
70
71
72
73
74
75
76
77
78
79
80
81
82
83
84
85
86
87
88
89
90
91
92
93
94
95
96
97
98
99
100
101
102
103
104
105
106
107
108
109
110
111
112
113
114
115
116
117
118
119
120
121
122
123
124
125
126
127
128
129
130
131
132
133
134
135
136
137
138
139
140
141
142
143
144
145
146
147
148
149
150
151
152
153
154
155
156
157
158
159
160
161
162
163
164
165
166
167
168
169
170
171
172
173
174
175
176
177
178
179
180
181
182
183
184
185
186
187
188
189
190
191
192
193
194
195
196
197
198
199
200
201
202
203
204
205
206
207
208
209
210
211
212
213
214
215
216
217
218
219
220
221
222
223
224
225
226
227
228
229
230
231
232
233
234
235
236
237
238
239
240
241
242
243
244
245
246
247
248
249
250
251
252
253
254
255
256
257
258
259
260
261
262
263
264
265
266
267
268
269
270
271
272
273
274
275
276
277
278
279
280
281
282
283
284
285
286
287
288
289
290
291
292
293
294
295
296
297
298
299
300
301
302
303
304
305
306
307
308
309
310
311
312
313
314
315
316
317
318
319
320
321
322
323
324
325
326
327
328
329
330
331
332
333
334
335
336
337
338
339
340
341
342

ExternalForceType_(0/1/2/3/4) 1 343 int
0
0
0
0
0
0
0
0
0
0
0
0
0
0
0
0
0
0
0
0
0
0
0
0
0
0
0
0
0
0
0
0
0
0
0
0
0
0
0
0
0
0
0
0
0
0
0
0
0
0
0
0
0
0
0
0
0
0
0
0
0
0
0
0
0
0
0
0
0
0
0
0
0
0
0
0
0
0
0
0
0
0
0
0
0
0
0
0
0
0
0
0
0
0
0
0
0
0
0
0
0
0
0
0
0
0
0
0
0
0
0
0
0
0
0
0
0
0
0
0
0
0
0
0
0
0
0
0
0
0
0
0
0
0
0
0
0
0
0
0
0
0
0
0
0
0
0
0
0
0
0
0
0
0
0
0
0
0
0
0
0
0
0
0
0
0
0
0
0
0
0
0
0
0
0
0
0
0
0
0
0
0
0
0
0
0
0
0
0
0
0
0
0
0
0
0
0
0
0
0
0
0
0
0
0
0
0
0
0
0
0
0
0
0
0
0
0
0
0
0
0
0
0
0
0
0
0
0
0
0
0
0
0
0
0
0
0
0
0
0
0
0
0
0
0
0
0
0
0
0
0
0
0
0
0
0
0
0
0
0
0
0
0
0
0
0
0
0
0
0
0
0
0
0
0
0
0
0
0
0
0
0
0
0
0
0
0
0
0
0
0
0
0
0
0
0
0
0
0
0
0
0
0
0
0
0
0
0
0
0
0
0
0
0
0
0
0
0
0
0
0
0
0
0
0
0
0
0
0
0
0
0
0
0
0
0
0
0
0
0
0
0
0

ExternalForce_(N) 3 343 double
0 -3.09568e-05 0
0 -0.000138619 0
0 -2.16714e-05 0
0 -0.000168226 0
0 -8.26002e-05 0
0 -8.9203e-05 0
0 -9.74165e-05 0
0 -7.37906e-05 0
0 -6.68156e-05 0
0 -5.47617e-05 0
0 -3.04981e-05 0
0 -0.000105531 0
0 -4.77758e-05 0
0 -0.000161821 0
0 -2.96713e-05 0
0 -7.9067e-05 0
0 -6.57564e-05 0
0 -0.000106704 0
0 -4.11017e-05 0
0 -8.006e-05 0
0 -6.02474e-05 0
0 -0.000115662 0
0 -2.18875e-05 0
0 -4.17098e-05 0
0 -0.000107827 0
0 -7.27379e-05 0
0 -4.13856e-05 0
0 -3.85027e-05 0
0 -3.029e-05 0
0 -0.000128774 0
0 -7.57947e-05 0
0 -0.000162261 0
0 -0.000116775 0
0 -7.15802e-05 0
0 -3.74431e-05 0
0 -0.000108892 0
0 -3.74072e-05 0
0 -0.000136493 0
0 -6.25303e-05 0
0 -7.85756e-05 0
0 -7.52544e-05 0
0 -0.000116589 0
0 -0.000160874 0
0 -2.73339e-05 0
0 -8.7662e-05 0
0 -2.53184e-05 0
0 -7.42972e-05 0
0 -4.15199e-05 0
0 -0.000128792 0
0 -3.72945e-05 0
0 -2.72189e-05 0
0 -7.03157e-05 0
0 -0.000119003 0
0 -5.02041e-05 0
0 -8.04153e-05 0
0 -4.4939e-05 0
0 -2.74192e-05 0
0 -3.19929e-05 0
0 -4.04607e-05 0
0 -2.07889e-05 0
0 -3.28809e-05 0
0 -3.54797e-05 0
0 -0.000153858 0
0 -7.19739e-05 0
0 -8.09026e-05 0
0 -4.90862e-05 0
0 -2.77255e-05 0
0 -7.06591e-05 0
0 -3.20606e-05 0
0 -4.10794e-05 0
0 -1.98932e-05 0
0 -2.37551e-05 0
0 -3.0591e-05 0
0 -5.86107e-05 0
0 -5.75946e-05 0
0 -4.01595e-05 0
0 -5.35099e-05 0
0 -2.24477e-05 0
0 -4.41213e-05 0
0 -4.29866e-05 0
0 -4.42325e-05 0
0 -4.30889e-05 0
0 -4.19155e-05 0
0 -5.21923e-05 0
0 -1.5029e-05 0
0 -2.34331e-05 0
0 -1.9903e-05 0
0 -4.30461e-05 0
0 -3.11931e-05 0
0 -3.08326e-05 0
0 -4.52797e-05 0
0 -5.7648e-05 0
0 -8.02544e-05 0
0 -2.43623e-05 0
0 -0.000150893 0
0 -3.43039e-05 0
0 -7.21258e-05 0
0 -1.97489e-05 0
0 -2.00202e-05 0
0 -7.83017e-05 0
0 -4.32908e-05 0
0 -7.00326e-05 0
0 -1.17841e-05 0
0 -4.93779e-05 0
0 -1.58193e-05 0
0 -4.04762e-05 0
0 -8.57147e-05 0
0 -4.2953e-05 0
0 -7.82027e-05 0
0 -2.09499e-05 0
0 -3.31713e-05 0
0 -9.30599e-05 0
0 -7.26197e-05 0
0 -1.76801e-05 0
0 -2.06228e-05 0
0 -7.8371e-05 0
0 -1.84411e-05 0
0 -7.30662e-05 0
0 -4.11806e-05 0
0 -2.3265e-05 0
0 -4.23503e-05 0
0 -5.94919e-05 0
0 -4.22718e-05 0
0 -2.12723e-05 0
0 -1.86252e-05 0
0 -1.77849e-05 0
0 -3.82356e-05 0
0 -2.39658e-05 0
0 -1.62481e-05 0
0 -7.86148e-05 0
0 -1.61387e-05 0
0 -2.34763e-05 0
0 -2.95637e-05 0
0 -2.93742e-05 0
0 -1.33947e-05 0
0 -1.83735e-05 0
0 -2.05639e-05 0
0 -1.91062e-05 0
0 -1.84053e-05 0
0 -6.25793e-05 0
0 -4.49914e-05 0
0 -1.98914e-05 0
0 -1.58922e-05 0
0 -2.367e-05 0
0 -3.81266e-05 0
0 -4.36518e-05 0
0 -2.25472e-05 0
0 -0.000115119 0
0 -3.05886e-05 0
0 -1.32828e-05 0
0 -3.38507e-05 0
0 -1.78391e-05 0
0 -2.88237e-05 0
0 -1.34771e-05 0
0 -2.36876e-05 0
0 -2.06453e-05 0
0 -2.58912e-05 0
0 -2.10097e-05 0
0 -1.7602e-05 0
0 -3.13896e-05 0
0 -1.34386e-05 0
0 -2.38863e-05 0
0 -2.04203e-05 0
0 -1.33426e-05 0
0 -2.13076e-05 0
0 -1.86316e-05 0
0 -3.10974e-05 0
0 -2.56228e-05 0
0 -2.33161e-05 0
0 -1.57181e-05 0
0 -1.87061e-05 0
0 -5.38771e-05 0
0 -1.84308e-05 0
0 -3.08341e-05 0
0 -2.91652e-05 0
0 -1.16203e-05 0
0 -1.85667e-05 0
0 -2.00287e-05 0
0 -2.68375e-05 0
0 -2.37799e-05 0
0 -3.16945e-05 0
0 -3.13676e-05 0
0 -3.15313e-05 0
0 -1.90796e-05 0
0 -1.58134e-05 0
0 -1.83326e-05 0
0 -3.16308e-05 0
0 -2.07128e-05 0
0 -2.91276e-05 0
0 -6.03597e-05 0
0 -2.26581e-05 0
0 -2.35174e-05 0
0 -2.33506e-05 0
0 -2.59482e-05 0
0 -1.63393e-05 0
0 -1.78912e-05 0
0 -2.02658e-05 0
0 -5.62379e-05 0
0 -2.04507e-05 0
0 -2.14176e-05 0
0 -2.38895e-05 0
0 -3.05955e-05 0
0 -3.11287e-05 0
0 -2.01544e-05 0
0 -1.92198e-05 0
0 -2.99909e-05 0
0 -6.32085e-05 0
0 -2.04829e-05 0
0 -2.67435e-05 0
0 -2.11611e-05 0
0 -1.83262e-05 0
0 -1.96474e-05 0
0 -2.0699e-05 0
0 -2.83503e-05 0
0 -2.27807e-05 0
0 -2.35234e-05 0
0 -1.93874e-05 0
0 -6.29086e-05 0
0 -2.12117e-05 0
0 -3.22943e-05 0
0 -2.06229e-05 0
0 -2.61501e-05 0
0 -1.90721e-05 0
0 -2.86319e-05 0
0 -2.53212e-05 0
0 -2.07681e-05 0
0 -2.05553e-05 0
0 -1.88077e-05 0
0 -6.92631e-05 0
0 -2.20924e-05 0
0 -2.02457e-05 0
0 -6.16224e-05 0
0 -2.08117e-05 0
0 -2.85397e-05 0
0 -2.08875e-05 0
0 -6.32617e-05 0
0 -1.39008e-05 0
0 -2.0289e-05 0
0 -6.45558e-05 0
0 -2.47785e-05 0
0 -2.35177e-05 0
0 -7.28089e-06 0
0 -2.18143e-05 0
0 -6.93323e-06 0
0 -6.87344e-06 0
0 -8.76768e-06 0
0 -2.48719e-05 0
0 -2.22231e-05 0
0 -1.31068e-05 0
0 -7.69816e-06 0
0 -2.27889e-05 0
0 -5.95166e-06 0
0 -6.55579e-06 0
0 -6.71305e-06 0
0 -2.46468e-05 0
0 -2.27228e-05 0
0 -7.6878e-06 0
0 -6.67903e-06 0
0 -6.10861e-05 0
0 -6.6189e-06 0
0 -6.52665e-06 0
0 -6.87836e-06 0
0 -1.78856e-05 0
0 -1.87072e-05 0
0 -6.73674e-06 0
0 -6.91401e-06 0
0 -1.82903e-05 0
0 -2.2423e-05 0
0 -6.67521e-06 0
0 -7.02401e-06 0
0 -1.78908e-05 0
0 -5.89658e-06 0
0 -1.98938e-05 0
0 -7.3162e-06 0
0 -5.63509e-06 0
0 -1.76631e-05 0
0 -1.42638e-05 0
0 -2.22707e-05 0
0 -1.77204e-05 0
0 -2.11264e-05 0
0 -1.75686e-05 0
0 -1.76047e-05 0
0 -6.69346e-06 0
0 -2.20467e-05 0
0 -1.42479e-05 0
0 -1.76144e-05 0
0 -6.84615e-06 0
0 -6.12404e-06 0
0 -6.50125e-06 0
0 -1.41879e-05 0
0 -1.37476e-05 0
0 -2.11168e-05 0
0 -1.79377e-05 0
0 -1.37282e-05 0
0 -1.41198e-05 0
0 -2.15061e-05 0
0 -6.84475e-06 0
0 -1.74349e-05 0
0 -1.75758e-05 0
0 -6.41828e-06 0
0 -7.20025e-06 0
0 -2.30432e-05 0
0 -6.96894e-06 0
0 -6.44499e-06 0
0 -6.14414e-06 0
0 -2.14766e-05 0
0 -6.00855e-06 0
0 -5.92427e-06 0
0 -5.81567e-06 0
0 -5.02303e-06 0
0 -5.01945e-06 0
0 -4.85271e-06 0
0 -4.87573e-06 0
0 -4.8684e-06 0
0 -5.22951e-06 0
0 -4.84801e-06 0
0 -4.88396e-06 0
0 -4.77612e-06 0
0 -4.81304e-06 0
0 -4.85251e-06 0
0 -4.8555e-06 0
0 -4.82575e-06 0
0 -4.80313e-06 0
0 -4.86923e-06 0
0 -4.85781e-06 0
0 -4.73027e-06 0
0 -1.08748e-05 0
0 -5.22863e-06 0
0 -5.34413e-06 0
0 -5.26459e-06 0
0 -5.05624e-06 0
0 -4.92238e-06 0
0 -5.43253e-06 0
0 -5.43253e-06 0
0 -5.43253e-06 0
0 -5.43253e-06 0
0 -5.43253e-06 0
0 -5.43253e-06 0
0 -5.40321e-06 0
0 -5.40321e-06 0
0 -7.3113e-06 0
0 -6.98147e-06 0
0 -4.8949e-06 0

