# vtk DataFile Version 4.2
vtk output
ASCII
DATASET UNSTRUCTURED_GRID

POINTS 343 double
0.00112271 0.0041949 9.60301e-08
0.00217142 0.00498245 0.00217541
0 0.00419538 0.00112517
0.00193018 0.00195439 0.0019422
0.00516908 0.00240623 0.00503268
0.00517176 0.00382949 0.006398
0.00762282 0.00477419 0.00499998
0.00622517 0.0048496 0.00369248
0.00683545 0.00328754 0.00691482
0.00499123 0.00499205 0.00500023
0.00417899 0.00111761 0.00999952
0.00527983 0.00207955 0.00790461
0.00418898 -7.99447e-06 0.00831753
0.00201212 0.00200242 0.00803331
0.00428499 0.00253243 0.00999958
0.00695662 0.00644579 0.00694778
0.00641422 0.00618158 0.00518377
0.00226051 0.00218454 0.00514618
0 0.00143586 0.00417514
0.00159465 0.00346612 0.00403705
0.00683748 0.00319286 0.00316237
0.00774489 0.0022116 0.00506502
0 0.00270918 0.00154168
0.00415874 0.001428 6.04022e-07
0.00500803 0.00218716 0.00219857
0.00396304 0.00352637 0.00160351
0.00134526 -6.2459e-07 0.00406005
0.00418324 -8.3084e-06 0.00168871
0.00262714 0.00695154 3.04134e-07
0.00193874 0.0080527 0.00194497
0.00408862 0.0062478 0.00164552
0.00800316 0.00798453 0.00799836
0.00796412 0.00481418 0.00802337
0.00838864 0.00607802 0.0059491
0.0100009 0.00882325 0.00419346
0.007578 0.00763437 0.00496463
0.00856906 0.00997825 0.00416768
0.0079787 0.00796966 0.00201709
0.0035357 0.00303628 0.00695972
0.00443673 0.00366151 0.00832441
0.00389183 0.00160012 0.00596925
0.00500571 0.00766772 0.00767714
0.00198972 0.00800782 0.00798969
0.002828 0.00999711 0.00712726
0.00391722 0.00839916 0.00595804
0 0.00695361 0.00262895
0.00164669 0.00623921 0.00408793
0 0.0040177 0.00850214
0.00231501 0.00498564 0.00766158
0.00143317 0.00417444 0.00999997
0.00717441 0.00711689 0.00999874
0.0061178 0.00596991 0.00841801
0.00205217 0.00794138 0.00474189
0.00304395 0.00694276 0.00646784
0.00158701 0.00607832 0.00592605
0.00998867 0.00578143 0.00831613
0 0.00718191 0.00711644
0.00158496 0.0057734 8.58986e-08
0 0.00577432 0.00158701
0.00999426 0.00715516 0.00711557
0.00286683 0.00334913 0.00999988
0.00996971 0.00140653 0.00417559
0.00803662 0.00194122 0.00198009
0.00838951 0.00350038 0.00399936
0.00372553 0.00164764 0.00412854
0.00150963 0.00999966 0.00581504
0.00280896 -3.84312e-06 0.00712783
0.00610898 0.00417059 0.00837649
0.00999422 0.00724721 0.00419578
0.00852766 -2.40659e-05 0.00416856
0.00334232 0.00286944 4.00822e-07
0.00269947 0.00153864 0.00999989
0.0028181 -4.21977e-06 0.00283217
0.00479761 0.00519362 0.0075546
0.00315831 0.00314609 0.00316752
0 0.00849157 0.00581511
0.00486497 0.00366899 0.00378659
0.00153727 0.00270864 6.6559e-08
0.00579957 0.00831512 0.00999894
0.00598547 0.00998841 0.00850552
0.00421454 0.00999363 0.00831762
0.00401776 0.0084979 0.00999925
0.00999956 0.00846458 0.00581452
0.00314797 0.0068334 0.00315104
0 0.00748929 0.00137438
0.00137378 0.00748899 3.21585e-08
0 0.00287343 0.00335182
0 0.00580816 0.00831736
0 0.00429792 0.00253898
0.00253419 0.0042958 3.0557e-07
0.00143379 0.00581915 0.00999998
0.00517564 0.00646804 0.00640045
0.00360324 0.00650917 0.00823404
0.00693084 0.00261178 0.009999
0.0079981 0.00193811 0.00803503
0.00694149 -1.78671e-05 0.00308267
0.00600057 0.00165148 0.00361333
0.00997556 0.00284506 0.00335249
0 0.00140616 0.00256446
0.00637402 0.00821576 0.00642087
0.00579715 0.00142234 1.12377e-06
0.00602273 0.00354011 0.00160395
0.00315782 0.00999623 0.00582527
0.0085639 0.00997843 0.00583278
0.00255431 0.0014028 3.35891e-07
0.00594991 -1.41883e-05 0.00149531
0.00628172 0.00827581 0.00361755
0.00852263 -2.38816e-05 0.00583335
0.00618582 0.00165954 0.00636528
0.00140214 0.00256405 0.01
0.00711328 0.00716664 8.38839e-07
0.00516653 0.00768169 0.00216931
0.00593763 0.00608309 0.0016025
0 0.00686719 0.00578184
0.00996935 0.00137662 0.00256545
0.00177224 0.00360984 0.0064079
0.0099992 0.00845958 0.00262412
0.00840428 0.00616896 0.00413302
0.00598517 0.00998771 0.00149428
0.00694053 -1.76004e-05 0.00692632
0.00996996 0.00140635 0.00581951
0.00837899 0.00355233 0.00606075
0.00150172 -8.06383e-07 0.00581522
0 0.0013659 0.00748679
0.00136352 -6.89105e-07 0.00752891
0.00999272 0.00684037 0.00578134
0.00581736 0.00848043 6.5112e-07
0 0.0075208 0.00859127
0.00136511 0.00748641 0.00999991
0.00423194 0.00819992 0.00362842
0.00859697 0.00997828 0.00751127
0.0100005 0.00860338 0.00752525
0.00575362 0.00157473 0.00999917
0.00724442 0.00417235 0.00999889
0 0.0057735 0.00666667
0.0013705 0.0099996 0.00752894
0 0.00863025 0.00752641
0.00855409 -2.45148e-05 0.00250844
0.00999268 0.00692648 0.00262945
0.00845187 0.00632143 0.00216354
0.00849945 0.00580346 0.00999861
0.00746389 0.00135548 0.0099988
0.00855558 -2.41349e-05 0.00751137
0.00996988 0.0013368 0.00748595
0 0.00143551 0.00581971
0.00595066 -1.37487e-05 0.00850537
0.00419281 -8.3772e-06 0.00340029
0.00792108 0.00468884 0.00203521
0.00998141 0.00427023 0.00253972
0.0042324 0.00999338 0.00666637
0.00283749 0.00999715 0.00283203
0.00130698 -6.77279e-07 0.00241834
0 0.00727418 0.00419576
0.00998819 0.00574669 0.00666592
0.00697953 0.00998424 0.00308179
0.00750853 0.00862016 0.00999868
0 0.00574334 0.00336387
0 0.0043297 0.00416652
0.00686138 0.00577051 0.00999898
0.00997667 0.00299422 0.00691461
0.00420519 -8.19084e-06 0.00666669
0.00248074 0.00999754 0.00861146
0.00746003 0.00134639 1.34567e-06
0.00577 0.00665694 0.009999
0.00999597 0.00749415 0.00858984
0.0086053 0.00753284 0.00999853
0.00689588 0.00300629 1.29624e-06
0.00335982 0.00574029 5.21572e-07
0.00752837 0.00861285 7.4834e-07
0.00752172 0.00998186 0.00138781
0.0057786 0.0068569 7.23457e-07
0.00696917 0.00635648 0.00303377
0.00748238 -2.03911e-05 0.00138888
0.00288003 0.004997 0.00999979
0.00432494 0.00582833 0.00999938
0.00432067 0.00416116 0.00999946
0.00752243 0.00998246 0.00861501
0.00246432 -3.26575e-06 0.00861164
0.00998754 0.00571621 0.0033643
0 0.00302218 0.00691532
0.00998106 0.00399044 0.00850092
0.00848404 0.00399585 1.3204e-06
0.00997469 0.00268044 0.00154285
0 0.00244495 0.00857025
0.00244592 0.00856804 0.00999964
0.00748329 -1.99168e-05 0.00861483
0.0084644 0.00260206 0.00999861
0.00883433 0.00417147 0.00999855
0.00567651 0.00998907 0.00583305
0.00518558 0.00757532 0.00503234
0.00564874 0.00998902 0.00421518
0.00697847 0.00998459 0.00692598
0.00302044 0.00691323 0.00999958
0.00415808 0.00432434 7.7663e-07
0.00282104 -4.37671e-06 0.00440487
0.00313711 -4.89326e-06 0.00582567
0.00998085 0.00416741 0.00112631
0.00363899 0.00833294 0.00158858
0.00998177 0.00430218 0.00416681
0.00665836 0.00575998 1.06241e-06
0.00859568 0.00997789 0.00250734
0 0.00848692 0.00262374
0.00135236 0.00999963 0.00405989
0 0.00885053 0.00419359
0.00419647 0.00884395 5.24035e-07
0.00421015 0.00999316 0.001688
0.00499047 0.00478401 0.00237934
0.00720551 0.00450546 1.2262e-06
0.0056156 -1.30334e-05 0.00421599
0.00564343 -1.29757e-05 0.00583348
0.00131392 0.00999965 0.00241807
0.00854555 0.00242194 1.42992e-06
0.009983 0.00449458 0.00721871
0.00712171 0.00998392 0.00499999
0.00572887 0.00335349 0.00999921
0.00244555 -3.39552e-06 0.00135686
0.00997447 0.0024166 0.0085691
0.00239186 0.00478971 0.00500001
0.0058209 0.00431919 1.12134e-06
0.00830704 0.00578777 1.08032e-06
0.00548542 0.00998988 0.00722006
0.00998196 0.00430277 0.00583299
0.00540892 0.00998966 0.00277571
0.00708329 -1.82068e-05 0.0050007
0.00283985 0.00999716 0.00440442
0 0.00452174 0.00721958
0.0045198 0.00721417 0.00999925
0.00545295 -1.21356e-05 0.00721999
0.00359827 0.00507028 0.00359669
0.00425732 0.0099933 0.0050081
0.00422938 -8.3689e-06 0.00500874
0.00366625 0.00521326 0.00617463
0 0.005744 0.00499998
0 0.00433013 0.00583333
0.00499382 0.00573675 9.05562e-07
0.00498096 0.00633193 0.00355404
0.00537633 -1.23046e-05 0.00277666
0.00998779 0.00571706 0.00499984
0.00368817 0.00640421 0.00484398
0.00573504 0.00499064 0.00999915
0.00998751 0.00574697 0.00158791
0 0.00666667 0
0.00858777 0.00749944 8.38489e-07
0.00331645 -6.49652e-06 1.13567e-06
0 0.01 0.00666667
0.00500645 0.00999103 0.00999938
0 0.00288419 0.00499914
0.00999485 0.00746204 0.00137519
0.00999127 0.0066393 9.72376e-07
0 0.005 0.01
0.00498394 0.00287523 8.81185e-07
0 0.005 0
0.00996355 -3.0358e-05 0.00333422
0.0100062 0.0099723 0.00666566
0.00419445 0.00726871 5.96626e-07
0.00997575 0.00285605 0.00499921
0.00497608 -1.16128e-05 1.43076e-06
0 0 0.00666667
0.00379033 0.00361244 0.00522642
0.00497702 -1.10638e-05 0.00999895
0.00996403 -3.00761e-05 0.00666614
0 0 0.005
0.00878668 0.0099769 0.00122059
0.0100003 0.00875224 0.00122075
0.00996375 -3.01625e-05 0.00500021
0.00998421 0.00497217 1.2028e-06
0.00121566 0.00121921 8.59984e-09
0 0.00122008 0.00122008
0 0.00333333 0.01
0 0.00666667 0.01
0.00878152 0.00875727 6.73758e-07
0.0100057 0.00997195 0.00333328
0.00422056 0.00999325 0.00339965
0.00999254 0.00664012 0.00999843
0 0.00333333 0
0 0.00122008 0.00877992
0.00121474 -8.77202e-07 0.0087797
0.00121596 0.00121949 0.0100001
0.00878752 0.00997745 0.00877876
0.00121999 0.00877942 0.0099999
0 0.00877992 0.00877992
0.0100014 0.00875295 0.00877848
0.00667401 0.00998494 3.45405e-07
0.00996836 0.0011902 0.00122149
0.00122107 0.00999943 0.00878014
0.00878279 0.008758 0.00999855
0.00998545 0.00497308 0.00999845
0 0 0.00333333
0.00663669 -1.7306e-05 1.73745e-06
0.0087449 -2.55639e-05 0.00122177
0.00120596 -8.9577e-07 0.00121214
0 0.00877992 0.00122008
0.00122027 0.0087794 1.19037e-07
0.00121261 0.00999948 0.00121144
0.00996939 0.0011908 0.00877856
0.00875111 0.00119579 0.00999847
0.00663797 -1.67627e-05 0.00999847
0.0087498 0.00119516 1.56763e-06
0.00874597 -2.50411e-05 0.00877848
0.00997724 0.00330483 1.38118e-06
0.0033381 0.00999523 0.0099999
0.00246259 0.00999772 0.00135644
0.00667475 0.0099856 0.00999915
0.00997841 0.00330577 0.00999844
0 0.01 0.005
0.00262488 0.00848452 3.2507e-07
0.0100059 0.00997214 0.00499954
0 0.01 0.00333333
0 0.00166667 0
0.00996335 -3.06242e-05 0.00166815
0 0.00166667 0.01
0 0.00833333 0
0.0099984 0.00830567 7.31703e-07
0.00996428 -3.01553e-05 0.00833198
0.0100056 0.00997174 0.0016671
0.0100064 0.00997233 0.00833202
0.00166901 0.00999842 0.00999999
0 0.01 0.00833333
0.00834036 0.00997851 4.96405e-07
0.00829922 -2.40586e-05 1.76793e-06
0.00830056 -2.35029e-05 0.00999829
0.00834132 0.00997905 0.00999874
0 0 0.00833333
0.0099997 0.0083065 0.00999838
0.00165788 -2.24774e-06 3.4054e-07
0 0 0.00166667
0.00333879 0.00999544 3.10931e-07
0.00997142 0.00163756 0.00999837
0.00997017 0.00163691 1.51313e-06
0.0016586 -1.85488e-06 0.0100001
0.00166916 0.00999874 1.37029e-07
0 0.01 0.00166667
0.0100067 0.00997233 0.00999848
0 0 0.01
0.0100055 0.00997157 4.51286e-07
0.00996448 -3.02583e-05 0.00999806
0 0.01 0.01
0.00996316 -3.08618e-05 1.78261e-06
0 0.01 0
0 0 0
0.00500669 0.00999053 3.529e-07
0.0033172 -5.82876e-06 0.00999934
0 0.00833333 0.01

CELLS 343 686
1 0
1 1
1 2
1 3
1 4
1 5
1 6
1 7
1 8
1 9
1 10
1 11
1 12
1 13
1 14
1 15
1 16
1 17
1 18
1 19
1 20
1 21
1 22
1 23
1 24
1 25
1 26
1 27
1 28
1 29
1 30
1 31
1 32
1 33
1 34
1 35
1 36
1 37
1 38
1 39
1 40
1 41
1 42
1 43
1 44
1 45
1 46
1 47
1 48
1 49
1 50
1 51
1 52
1 53
1 54
1 55
1 56
1 57
1 58
1 59
1 60
1 61
1 62
1 63
1 64
1 65
1 66
1 67
1 68
1 69
1 70
1 71
1 72
1 73
1 74
1 75
1 76
1 77
1 78
1 79
1 80
1 81
1 82
1 83
1 84
1 85
1 86
1 87
1 88
1 89
1 90
1 91
1 92
1 93
1 94
1 95
1 96
1 97
1 98
1 99
1 100
1 101
1 102
1 103
1 104
1 105
1 106
1 107
1 108
1 109
1 110
1 111
1 112
1 113
1 114
1 115
1 116
1 117
1 118
1 119
1 120
1 121
1 122
1 123
1 124
1 125
1 126
1 127
1 128
1 129
1 130
1 131
1 132
1 133
1 134
1 135
1 136
1 137
1 138
1 139
1 140
1 141
1 142
1 143
1 144
1 145
1 146
1 147
1 148
1 149
1 150
1 151
1 152
1 153
1 154
1 155
1 156
1 157
1 158
1 159
1 160
1 161
1 162
1 163
1 164
1 165
1 166
1 167
1 168
1 169
1 170
1 171
1 172
1 173
1 174
1 175
1 176
1 177
1 178
1 179
1 180
1 181
1 182
1 183
1 184
1 185
1 186
1 187
1 188
1 189
1 190
1 191
1 192
1 193
1 194
1 195
1 196
1 197
1 198
1 199
1 200
1 201
1 202
1 203
1 204
1 205
1 206
1 207
1 208
1 209
1 210
1 211
1 212
1 213
1 214
1 215
1 216
1 217
1 218
1 219
1 220
1 221
1 222
1 223
1 224
1 225
1 226
1 227
1 228
1 229
1 230
1 231
1 232
1 233
1 234
1 235
1 236
1 237
1 238
1 239
1 240
1 241
1 242
1 243
1 244
1 245
1 246
1 247
1 248
1 249
1 250
1 251
1 252
1 253
1 254
1 255
1 256
1 257
1 258
1 259
1 260
1 261
1 262
1 263
1 264
1 265
1 266
1 267
1 268
1 269
1 270
1 271
1 272
1 273
1 274
1 275
1 276
1 277
1 278
1 279
1 280
1 281
1 282
1 283
1 284
1 285
1 286
1 287
1 288
1 289
1 290
1 291
1 292
1 293
1 294
1 295
1 296
1 297
1 298
1 299
1 300
1 301
1 302
1 303
1 304
1 305
1 306
1 307
1 308
1 309
1 310
1 311
1 312
1 313
1 314
1 315
1 316
1 317
1 318
1 319
1 320
1 321
1 322
1 323
1 324
1 325
1 326
1 327
1 328
1 329
1 330
1 331
1 332
1 333
1 334
1 335
1 336
1 337
1 338
1 339
1 340
1 341
1 342

CELL_TYPES 343
1
1
1
1
1
1
1
1
1
1
1
1
1
1
1
1
1
1
1
1
1
1
1
1
1
1
1
1
1
1
1
1
1
1
1
1
1
1
1
1
1
1
1
1
1
1
1
1
1
1
1
1
1
1
1
1
1
1
1
1
1
1
1
1
1
1
1
1
1
1
1
1
1
1
1
1
1
1
1
1
1
1
1
1
1
1
1
1
1
1
1
1
1
1
1
1
1
1
1
1
1
1
1
1
1
1
1
1
1
1
1
1
1
1
1
1
1
1
1
1
1
1
1
1
1
1
1
1
1
1
1
1
1
1
1
1
1
1
1
1
1
1
1
1
1
1
1
1
1
1
1
1
1
1
1
1
1
1
1
1
1
1
1
1
1
1
1
1
1
1
1
1
1
1
1
1
1
1
1
1
1
1
1
1
1
1
1
1
1
1
1
1
1
1
1
1
1
1
1
1
1
1
1
1
1
1
1
1
1
1
1
1
1
1
1
1
1
1
1
1
1
1
1
1
1
1
1
1
1
1
1
1
1
1
1
1
1
1
1
1
1
1
1
1
1
1
1
1
1
1
1
1
1
1
1
1
1
1
1
1
1
1
1
1
1
1
1
1
1
1
1
1
1
1
1
1
1
1
1
1
1
1
1
1
1
1
1
1
1
1
1
1
1
1
1
1
1
1
1
1
1
1
1
1
1
1
1
1
1
1
1
1
1
1
1
1
1
1
1
1
1
1
1
1
1
1
1
1
1
1
1
1
1
1
1
1
1
1
1
1
1
1
1

POINT_DATA 343
FIELD FieldData 3

ExternalForceID_(#) 1 343 int
0
1
2
3
4
5
6
7
8
9
10
11
12
13
14
15
16
17
18
19
20
21
22
23
24
25
26
27
28
29
30
31
32
33
34
35
36
37
38
39
40
41
42
43
44
45
46
47
48
49
50
51
52
53
54
55
56
57
58
59
60
61
62
63
64
65
66
67
68
69
70
71
72
73
74
75
76
77
78
79
80
81
82
83
84
85
86
87
88
89
90
91
92
93
94
95
96
97
98
99
100
101
102
103
104
105
106
107
108
109
110
111
112
113
114
115
116
117
118
119
120
121
122
123
124
125
126
127
128
129
130
131
132
133
134
135
136
137
138
139
140
141
142
143
144
145
146
147
148
149
150
151
152
153
154
155
156
157
158
159
160
161
162
163
164
165
166
167
168
169
170
171
172
173
174
175
176
177
178
179
180
181
182
183
184
185
186
187
188
189
190
191
192
193
194
195
196
197
198
199
200
201
202
203
204
205
206
207
208
209
210
211
212
213
214
215
216
217
218
219
220
221
222
223
224
225
226
227
228
229
230
231
232
233
234
235
236
237
238
239
240
241
242
243
244
245
246
247
248
249
250
251
252
253
254
255
256
257
258
259
260
261
262
263
264
265
266
267
268
269
270
271
272
273
274
275
276
277
278
279
280
281
282
283
284
285
286
287
288
289
290
291
292
293
294
295
296
297
298
299
300
301
302
303
304
305
306
307
308
309
310
311
312
313
314
315
316
317
318
319
320
321
322
323
324
325
326
327
328
329
330
331
332
333
334
335
336
337
338
339
340
341
342

ExternalForceType_(0/1/2/3/4) 1 343 int
0
0
0
0
0
0
0
0
0
0
0
0
0
0
0
0
0
0
0
0
0
0
0
0
0
0
0
0
0
0
0
0
0
0
0
0
0
0
0
0
0
0
0
0
0
0
0
0
0
0
0
0
0
0
0
0
0
0
0
0
0
0
0
0
0
0
0
0
0
0
0
0
0
0
0
0
0
0
0
0
0
0
0
0
0
0
0
0
0
0
0
0
0
0
0
0
0
0
0
0
0
0
0
0
0
0
0
0
0
0
0
0
0
0
0
0
0
0
0
0
0
0
0
0
0
0
0
0
0
0
0
0
0
0
0
0
0
0
0
0
0
0
0
0
0
0
0
0
0
0
0
0
0
0
0
0
0
0
0
0
0
0
0
0
0
0
0
0
0
0
0
0
0
0
0
0
0
0
0
0
0
0
0
0
0
0
0
0
0
0
0
0
0
0
0
0
0
0
0
0
0
0
0
0
0
0
0
0
0
0
0
0
0
0
0
0
0
0
0
0
0
0
0
0
0
0
0
0
0
0
0
0
0
0
0
0
0
0
0
0
0
0
0
0
0
0
0
0
0
0
0
0
0
0
0
0
0
0
0
0
0
0
0
0
0
0
0
0
0
0
0
0
0
0
0
0
0
0
0
0
0
0
0
0
0
0
0
0
0
0
0
0
0
0
0
0
0
0
0
0
0
0
0
0
0
0
0
0
0
0
0
0
0
0
0
0
0
0
0
0
0
0
0
0
0
0
0
0
0
0
0
0
0
0
0
0
0
0
0
0
0
0
0

ExternalForce_(N) 3 343 double
0 -3.09568e-05 0
0 -0.000138619 0
0 -2.16714e-05 0
0 -0.000168226 0
0 -8.26002e-05 0
0 -8.9203e-05 0
0 -9.74165e-05 0
0 -7.37906e-05 0
0 -6.68156e-05 0
0 -5.47617e-05 0
0 -3.04981e-05 0
0 -0.000105531 0
0 -4.77758e-05 0
0 -0.000161821 0
0 -2.96713e-05 0
0 -7.9067e-05 0
0 -6.57564e-05 0
0 -0.000106704 0
0 -4.11017e-05 0
0 -8.006e-05 0
0 -6.02474e-05 0
0 -0.000115662 0
0 -2.18875e-05 0
0 -4.17098e-05 0
0 -0.000107827 0
0 -7.27379e-05 0
0 -4.13856e-05 0
0 -3.85027e-05 0
0 -3.029e-05 0
0 -0.000128774 0
0 -7.57947e-05 0
0 -0.000162261 0
0 -0.000116775 0
0 -7.15802e-05 0
0 -3.74431e-05 0
0 -0.000108892 0
0 -3.74072e-05 0
0 -0.000136493 0
0 -6.25303e-05 0
0 -7.85756e-05 0
0 -7.52544e-05 0
0 -0.000116589 0
0 -0.000160874 0
0 -2.73339e-05 0
0 -8.7662e-05 0
0 -2.53184e-05 0
0 -7.42972e-05 0
0 -4.15199e-05 0
0 -0.000128792 0
0 -3.72945e-05 0
0 -2.72189e-05 0
0 -7.03157e-05 0
0 -0.000119003 0
0 -5.02041e-05 0
0 -8.04153e-05 0
0 -4.4939e-05 0
0 -2.74192e-05 0
0 -3.19929e-05 0
0 -4.04607e-05 0
0 -2.07889e-05 0
0 -3.28809e-05 0
0 -3.54797e-05 0
0 -0.000153858 0
0 -7.19739e-05 0
0 -8.09026e-05 0
0 -4.90862e-05 0
0 -2.77255e-05 0
0 -7.06591e-05 0
0 -3.20606e-05 0
0 -4.10794e-05 0
0 -1.98932e-05 0
0 -2.37551e-05 0
0 -3.0591e-05 0
0 -5.86107e-05 0
0 -5.75946e-05 0
0 -4.01595e-05 0
0 -5.35099e-05 0
0 -2.24477e-05 0
0 -4.41213e-05 0
0 -4.29866e-05 0
0 -4.42325e-05 0
0 -4.30889e-05 0
0 -4.19155e-05 0
0 -5.21923e-05 0
0 -1.5029e-05 0
0 -2.34331e-05 0
0 -1.9903e-05 0
0 -4.30461e-05 0
0 -3.11931e-05 0
0 -3.08326e-05 0
0 -4.52797e-05 0
0 -5.7648e-05 0
0 -8.02544e-05 0
0 -2.43623e-05 0
0 -0.000150893 0
0 -3.43039e-05 0
0 -7.21258e-05 0
0 -1.97489e-05 0
0 -2.00202e-05 0
0 -7.83017e-05 0
0 -4.32908e-05 0
0 -7.00326e-05 0
0 -1.17841e-05 0
0 -4.93779e-05 0
0 -1.58193e-05 0
0 -4.04762e-05 0
0 -8.57147e-05 0
0 -4.2953e-05 0
0 -7.82027e-05 0
0 -2.09499e-05 0
0 -3.31713e-05 0
0 -9.30599e-05 0
0 -7.26197e-05 0
0 -1.76801e-05 0
0 -2.06228e-05 0
0 -7.8371e-05 0
0 -1.84411e-05 0
0 -7.30662e-05 0
0 -4.11806e-05 0
0 -2.3265e-05 0
0 -4.23503e-05 0
0 -5.94919e-05 0
0 -4.22718e-05 0
0 -2.12723e-05 0
0 -1.86252e-05 0
0 -1.77849e-05 0
0 -3.82356e-05 0
0 -2.39658e-05 0
0 -1.62481e-05 0
0 -7.86148e-05 0
0 -1.61387e-05 0
0 -2.34763e-05 0
0 -2.95637e-05 0
0 -2.93742e-05 0
0 -1.33947e-05 0
0 -1.83735e-05 0
0 -2.05639e-05 0
0 -1.91062e-05 0
0 -1.84053e-05 0
0 -6.25793e-05 0
0 -4.49914e-05 0
0 -1.98914e-05 0
0 -1.58922e-05 0
0 -2.367e-05 0
0 -3.81266e-05 0
0 -4.36518e-05 0
0 -2.25472e-05 0
0 -0.000115119 0
0 -3.05886e-05 0
0 -1.32828e-05 0
0 -3.38507e-05 0
0 -1.78391e-05 0
0 -2.88237e-05 0
0 -1.34771e-05 0
0 -2.36876e-05 0
0 -2.06453e-05 0
0 -2.58912e-05 0
0 -2.10097e-05 0
0 -1.7602e-05 0
0 -3.13896e-05 0
0 -1.34386e-05 0
0 -2.38863e-05 0
0 -2.04203e-05 0
0 -1.33426e-05 0
0 -2.13076e-05 0
0 -1.86316e-05 0
0 -3.10974e-05 0
0 -2.56228e-05 0
0 -2.33161e-05 0
0 -1.57181e-05 0
0 -1.87061e-05 0
0 -5.38771e-05 0
0 -1.84308e-05 0
0 -3.08341e-05 0
0 -2.91652e-05 0
0 -1.16203e-05 0
0 -1.85667e-05 0
0 -2.00287e-05 0
0 -2.68375e-05 0
0 -2.37799e-05 0
0 -3.16945e-05 0
0 -3.13676e-05 0
0 -3.15313e-05 0
0 -1.90796e-05 0
0 -1.58134e-05 0
0 -1.83326e-05 0
0 -3.16308e-05 0
0 -2.07128e-05 0
0 -2.91276e-05 0
0 -6.03597e-05 0
0 -2.26581e-05 0
0 -2.35174e-05 0
0 -2.33506e-05 0
0 -2.59482e-05 0
0 -1.63393e-05 0
0 -1.78912e-05 0
0 -2.02658e-05 0
0 -5.62379e-05 0
0 -2.04507e-05 0
0 -2.14176e-05 0
0 -2.38895e-05 0
0 -3.05955e-05 0
0 -3.11287e-05 0
0 -2.01544e-05 0
0 -1.92198e-05 0
0 -2.99909e-05 0
0 -6.32085e-05 0
0 -2.04829e-05 0
0 -2.67435e-05 0
0 -2.11611e-05 0
0 -1.83262e-05 0
0 -1.96474e-05 0
0 -2.0699e-05 0
0 -2.83503e-05 0
0 -2.27807e-05 0
0 -2.35234e-05 0
0 -1.93874e-05 0
0 -6.29086e-05 0
0 -2.12117e-05 0
0 -3.22943e-05 0
0 -2.06229e-05 0
0 -2.61501e-05 0
0 -1.90721e-05 0
0 -2.86319e-05 0
0 -2.53212e-05 0
0 -2.07681e-05 0
0 -2.05553e-05 0
0 -1.88077e-05 0
0 -6.92631e-05 0
0 -2.20924e-05 0
0 -2.02457e-05 0
0 -6.16224e-05 0
0 -2.08117e-05 0
0 -2.85397e-05 0
0 -2.08875e-05 0
0 -6.32617e-05 0
0 -1.39008e-05 0
0 -2.0289e-05 0
0 -6.45558e-05 0
0 -2.47785e-05 0
0 -2.35177e-05 0
0 -7.28089e-06 0
0 -2.18143e-05 0
0 -6.93323e-06 0
0 -6.87344e-06 0
0 -8.76768e-06 0
0 -2.48719e-05 0
0 -2.22231e-05 0
0 -1.31068e-05 0
0 -7.69816e-06 0
0 -2.27889e-05 0
0 -5.95166e-06 0
0 -6.55579e-06 0
0 -6.71305e-06 0
0 -2.46468e-05 0
0 -2.27228e-05 0
0 -7.6878e-06 0
0 -6.67903e-06 0
0 -6.10861e-05 0
0 -6.6189e-06 0
0 -6.52665e-06 0
0 -6.87836e-06 0
0 -1.78856e-05 0
0 -1.87072e-05 0
0 -6.73674e-06 0
0 -6.91401e-06 0
0 -1.82903e-05 0
0 -2.2423e-05 0
0 -6.67521e-06 0
0 -7.02401e-06 0
0 -1.78908e-05 0
0 -5.89658e-06 0
0 -1.98938e-05 0
0 -7.3162e-06 0
0 -5.63509e-06 0
0 -1.76631e-05 0
0 -1.42638e-05 0
0 -2.22707e-05 0
0 -1.77204e-05 0
0 -2.11264e-05 0
0 -1.75686e-05 0
0 -1.76047e-05 0
0 -6.69346e-06 0
0 -2.20467e-05 0
0 -1.42479e-05 0
0 -1.76144e-05 0
0 -6.84615e-06 0
0 -6.12404e-06 0
0 -6.50125e-06 0
0 -1.41879e-05 0
0 -1.37476e-05 0
0 -2.11168e-05 0
0 -1.79377e-05 0
0 -1.37282e-05 0
0 -1.41198e-05 0
0 -2.15061e-05 0
0 -6.84475e-06 0
0 -1.74349e-05 0
0 -1.75758e-05 0
0 -6.41828e-06 0
0 -7.20025e-06 0
0 -2.30432e-05 0
0 -6.96894e-06 0
0 -6.44499e-06 0
0 -6.14414e-06 0
0 -2.14766e-05 0
0 -6.00855e-06 0
0 -5.92427e-06 0
0 -5.81567e-06 0
0 -5.02303e-06 0
0 -5.01945e-06 0
0 -4.85271e-06 0
0 -4.87573e-06 0
0 -4.8684e-06 0
0 -5.22951e-06 0
0 -4.84801e-06 0
0 -4.88396e-06 0
0 -4.77612e-06 0
0 -4.81304e-06 0
0 -4.85251e-06 0
0 -4.8555e-06 0
0 -4.82575e-06 0
0 -4.80313e-06 0
0 -4.86923e-06 0
0 -4.85781e-06 0
0 -4.73027e-06 0
0 -1.08748e-05 0
0 -5.22863e-06 0
0 -5.34413e-06 0
0 -5.26459e-06 0
0 -5.05624e-06 0
0 -4.92238e-06 0
0 -5.43253e-06 0
0 -5.43253e-06 0
0 -5.43253e-06 0
0 -5.43253e-06 0
0 -5.43253e-06 0
0 -5.43253e-06 0
0 -5.40321e-06 0
0 -5.40321e-06 0
0 -7.3113e-06 0
0 -6.98147e-06 0
0 -4.8949e-06 0

