# vtk DataFile Version 4.2
vtk output
ASCII
DATASET UNSTRUCTURED_GRID

POINTS 343 double
0.0011226 0.00419491 9.18047e-08
0.00217125 0.0049825 0.00217537
0 0.00419538 0.00112517
0.00193016 0.00195444 0.00194217
0.00516948 0.00240667 0.00503236
0.00517213 0.00382986 0.00639766
0.00762281 0.00477503 0.00499922
0.00622491 0.00485015 0.00369199
0.00683609 0.00328826 0.00691419
0.00499119 0.00499237 0.00499993
0.00418002 0.00111797 0.00999923
0.00528071 0.00208004 0.00790421
0.00418998 -7.6003e-06 0.00831727
0.00201236 0.00200246 0.00803327
0.00428585 0.00253274 0.00999927
0.00695662 0.00644644 0.00694713
0.00641397 0.00618213 0.00518324
0.00226063 0.0021846 0.00514613
0 0.00143586 0.00417514
0.00159464 0.00346614 0.00403704
0.00683746 0.0031936 0.00316175
0.00774545 0.00221257 0.00506423
0 0.00270918 0.00154168
0.00415858 0.00142836 3.50185e-07
0.00500805 0.00218762 0.00219819
0.00396278 0.0035266 0.00160327
0.00134539 -6.08234e-07 0.00406003
0.00418351 -7.93625e-06 0.00168843
0.00262659 0.00695161 2.11095e-07
0.00193846 0.00805273 0.00194493
0.00408805 0.00624797 0.00164526
0.00800302 0.00798542 0.00799748
0.00796469 0.00481508 0.0080225
0.00838851 0.00607901 0.00594818
0.0099997 0.00882461 0.00419223
0.00757734 0.00763517 0.00496389
0.00856767 0.00997931 0.00416674
0.00797735 0.00797055 0.00201624
0.00353602 0.00303645 0.00695957
0.00443728 0.00366177 0.0083241
0.00389232 0.0016004 0.00596908
0.00500563 0.00766807 0.00767677
0.0019897 0.00800786 0.00798965
0.00282769 0.00999723 0.00712719
0.00391687 0.00839938 0.00595787
0 0.00695361 0.00262895
0.00164659 0.00623924 0.0040879
0 0.0040177 0.00850214
0.00231509 0.00498569 0.00766152
0.0014333 0.00417447 0.00999996
0.00717479 0.00711761 0.00999799
0.00611813 0.00597041 0.00841746
0.00205202 0.00794141 0.00474186
0.00304387 0.00694284 0.00646774
0.00158699 0.00607834 0.00592602
0.00998906 0.00578279 0.00831485
0 0.00718191 0.00711644
0.00158473 0.00577343 6.59549e-08
0 0.00577432 0.00158701
0.00999409 0.00715651 0.0071143
0.00286733 0.00334924 0.00999974
0.00997029 0.00140806 0.00417434
0.00803663 0.00194228 0.00197923
0.00838957 0.00350143 0.00399844
0.00372584 0.0016479 0.00412839
0.00150947 0.00999967 0.00581502
0.00280954 -3.66276e-06 0.00712774
0.00610964 0.00417112 0.00837594
0.00999342 0.00724856 0.00419454
0.00852857 -2.28362e-05 0.00416761
0.00334198 0.0028696 2.43923e-07
0.0027001 0.00153878 0.00999976
0.00281844 -4.0377e-06 0.00283208
0.0047979 0.0051939 0.00755427
0.00315831 0.00314621 0.00316741
0 0.00849157 0.00581511
0.00486498 0.00366933 0.00378629
0.00153716 0.00270865 5.18556e-08
0.00579974 0.00831562 0.00999842
0.00598509 0.00998895 0.00850496
0.00421428 0.00999391 0.00831734
0.00401788 0.00849816 0.009999
0.00999882 0.00846593 0.00581328
0.00314767 0.00683349 0.00315093
0 0.00748929 0.00137438
0.00137354 0.00748899 2.7386e-08
0 0.00287343 0.00335182
0 0.00580816 0.00831736
0 0.00429792 0.00253898
0.0025338 0.00429588 2.19546e-07
0.0014339 0.00581917 0.00999996
0.00517556 0.00646838 0.00640011
0.00360339 0.0065093 0.00823384
0.00693214 0.00261257 0.00999829
0.00799933 0.00193915 0.00803416
0.0069421 -1.69856e-05 0.00308202
0.00600091 0.00165212 0.00361285
0.00997564 0.00284652 0.00335124
0 0.00140616 0.00256446
0.00637361 0.00821634 0.00642034
0.00579699 0.00142297 6.29466e-07
0.00602242 0.00354068 0.00160342
0.0031574 0.0099964 0.00582515
0.00856286 0.00997949 0.00583184
0.00255418 0.00140295 2.38663e-07
0.00595025 -1.35054e-05 0.00149477
0.00628081 0.00827638 0.00361704
0.00852387 -2.26573e-05 0.0058324
0.00618664 0.00166021 0.00636478
0.00140232 0.00256406 0.01
0.00711184 0.00716735 1.16636e-07
0.00516562 0.00768206 0.00216893
0.0059368 0.00608355 0.00160198
0 0.00686719 0.00578184
0.00996961 0.00137815 0.0025642
0.00177231 0.00360987 0.00640787
0.00999779 0.00846095 0.00262287
0.00840375 0.00616995 0.00413211
0.00598362 0.00998828 0.00149376
0.00694187 -1.67084e-05 0.00692568
0.00997088 0.00140787 0.00581826
0.00837947 0.00355338 0.00605982
0.0015019 -7.77299e-07 0.0058152
0 0.0013659 0.00748679
0.00136373 -6.56311e-07 0.00752891
0.00999235 0.00684172 0.0057801
0.00581586 0.00848092 1.39473e-07
0 0.0075208 0.00859127
0.00136518 0.00748643 0.00999989
0.00423133 0.00820017 0.00362822
0.00859627 0.00997936 0.00751028
0.0100001 0.00860473 0.00752399
0.00575498 0.00157533 0.00999865
0.00724543 0.00417311 0.00999813
0 0.0057735 0.00666667
0.00137041 0.00999961 0.00752893
0 0.00863025 0.00752641
0.00855467 -2.32647e-05 0.00250746
0.00999164 0.00692783 0.00262821
0.0084509 0.00632244 0.0021626
0.00850018 0.00580447 0.00999763
0.0074655 0.00135644 0.009998
0.00855717 -2.28842e-05 0.00751042
0.00997116 0.00133833 0.00748469
0 0.00143551 0.00581971
0.00595212 -1.30562e-05 0.00850485
0.00419331 -7.98693e-06 0.00340007
0.00792048 0.00468977 0.00203438
0.00998098 0.00427165 0.00253848
0.0042319 0.00999368 0.00666615
0.00283688 0.00999727 0.00283194
0.00130706 -6.61746e-07 0.00241833
0 0.00727418 0.00419576
0.00998826 0.00574806 0.00666467
0.0069781 0.00998499 0.00308115
0.00750861 0.00862099 0.00999787
0 0.00574334 0.00336387
0 0.0043297 0.00416652
0.00686203 0.00577116 0.00999827
0.00997744 0.00299567 0.00691335
0.00420606 -7.79063e-06 0.00666648
0.00248059 0.00999764 0.00861137
0.00745983 0.00134736 5.63922e-07
0.00577044 0.00665739 0.00999848
0.00999602 0.0074955 0.00858857
0.00860563 0.00753388 0.00999752
0.00689537 0.00300706 6.074e-07
0.0033592 0.0057404 3.48503e-07
0.00752658 0.00861366 -5.68126e-08
0.00751991 0.00998273 0.00138702
0.00577741 0.00685736 2.14734e-07
0.00696845 0.00635715 0.00303313
0.00748272 -1.9373e-05 0.00138809
0.00288039 0.0049971 0.00999965
0.00432545 0.00582855 0.00999906
0.00432134 0.00416141 0.00999913
0.007522 0.00998331 0.0086142
0.00246492 -3.09854e-06 0.00861156
0.00998694 0.00571759 0.00336306
0 0.00302218 0.00691532
0.00998192 0.00399185 0.00849965
0.0084832 0.00399694 3.50651e-07
0.00997443 0.00268191 0.00154161
0 0.00244495 0.00857025
0.00244603 0.00856815 0.00999953
0.00748497 -1.8886e-05 0.00861405
0.00846587 0.00260317 0.00999764
0.00883545 0.00417261 0.0099975
0.00567577 0.00998959 0.00583265
0.00518514 0.00757569 0.00503201
0.00564773 0.00998953 0.00421479
0.00697777 0.00998533 0.00692534
0.00302069 0.0069133 0.00999942
0.00415749 0.00432456 4.91499e-07
0.00282145 -4.17714e-06 0.00440478
0.00313767 -4.66569e-06 0.00582555
0.00998016 0.00416884 0.00112507
0.00363826 0.00833313 0.00158837
0.00998166 0.00430359 0.00416556
0.00665727 0.0057606 4.13141e-07
0.00859394 0.00997896 0.00250638
0 0.00848692 0.00262374
0.00135219 0.00999965 0.00405988
0 0.00885053 0.00419359
0.00419532 0.00884423 2.29281e-07
0.00420905 0.00999347 0.00168774
0.0049901 0.00478432 0.00237899
0.00720465 0.00450624 4.85619e-07
0.0056163 -1.2399e-05 0.00421558
0.00564441 -1.23367e-05 0.00583308
0.00131371 0.00999966 0.00241806
0.00854507 0.0024231 4.51799e-07
0.00998348 0.00449598 0.00721745
0.00712062 0.00998469 0.00499934
0.00572989 0.00335399 0.00999869
0.00244572 -3.26246e-06 0.00135678
0.00997572 0.00241808 0.00856783
0.00239183 0.00478977 0.00499994
0.00582021 0.00431969 5.91606e-07
0.00830579 0.00578875 1.36417e-07
0.00548489 0.00999035 0.00721964
0.0099822 0.00430418 0.00583174
0.0054077 0.00999014 0.00277533
0.00708427 -1.7298e-05 0.00500004
0.00283935 0.00999728 0.00440435
0 0.00452174 0.00721958
0.00452011 0.00721444 0.00999892
0.00545411 -1.15357e-05 0.0072196
0.0035981 0.00507043 0.00359656
0.00425661 0.00999361 0.0050079
0.00423007 -7.96659e-06 0.00500853
0.00366629 0.00521341 0.00617447
0 0.005744 0.00499998
0 0.00433013 0.00583333
0.00499294 0.00573704 4.97778e-07
0.00498051 0.00633224 0.00355374
0.00537682 -1.17163e-05 0.00277624
0.00998753 0.00571844 0.00499859
0.00368799 0.00640434 0.00484384
0.00573576 0.00499108 0.00999863
0.00998654 0.00574836 0.00158667
0 0.00666667 0
0.00858611 0.00750047 -1.53868e-07
0.00331649 -6.18611e-06 9.21357e-07
0 0.01 0.00666667
0.00500639 0.00999145 0.00999895
0 0.00288419 0.00499914
0.00999342 0.00746339 0.00137394
0.00998977 0.00664067 -2.9552e-07
0 0.005 0.01
0.00498355 0.00287564 4.97323e-07
0 0.005 0
0.0099643 -2.87709e-05 0.00333297
0.0100052 0.00997369 0.00666441
0.00419351 0.00726893 3.03241e-07
0.00997616 0.0028575 0.00499796
0.00497614 -1.10536e-05 1.0179e-06
0 0 0.00666667
0.00379046 0.00361262 0.00522627
0.00497843 -1.05249e-05 0.00999855
0.00996546 -2.84988e-05 0.0066649
0 0 0.005
0.00878469 0.00997802 0.00121957
0.00999858 0.00875361 0.0012195
0.00996485 -2.85858e-05 0.00499896
0.00998311 0.00497357 -6.26429e-08
0.00121562 0.00121925 1.34102e-09
0 0.00122008 0.00122008
0 0.00333333 0.01
0 0.00666667 0.01
0.00877957 0.00875836 -3.52414e-07
0.0100041 0.00997334 0.00333205
0.00421966 0.00999356 0.00339945
0.00999308 0.00664148 0.00999713
0 0.00333333 0
0 0.00122008 0.00877992
0.00121495 -8.33904e-07 0.00877969
0.00121614 0.00121951 0.0100001
0.00878707 0.00997857 0.0087777
0.00122002 0.00877945 0.00999989
0 0.00877992 0.00877992
0.0100012 0.00875432 0.0087772
0.00667208 0.00998564 -3.02458e-07
0.00996839 0.00119175 0.00122024
0.00122102 0.00999945 0.0087801
0.00878284 0.0087591 0.0099975
0.00998638 0.00497447 0.00999716
0 0 0.00333333
0.00663679 -1.6443e-05 1.0618e-06
0.00874523 -2.42519e-05 0.00122074
0.00120601 -8.66396e-07 0.0012121
0 0.00877992 0.00122008
0.00122003 0.0087794 1.06887e-07
0.00121237 0.0099995 0.00121143
0.00997097 0.00119234 0.0087773
0.00875292 0.00119705 0.00999744
0.00663977 -1.59272e-05 0.00999782
0.00874961 0.00119643 5.48026e-07
0.00874781 -2.37346e-05 0.00877747
0.00997653 0.00330628 1.22531e-07
0.00333808 0.00999546 0.00999967
0.00246194 0.00999782 0.00135636
0.00667459 0.00998631 0.00999845
0.00997974 0.00330719 0.00999715
0 0.01 0.005
0.0026242 0.0084846 2.19922e-07
0.0100046 0.00997353 0.0049983
0 0.01 0.00333333
0 0.00166667 0
0.00996376 -2.90255e-05 0.00166689
0 0.00166667 0.01
0 0.00833333 0
0.00999652 0.00830703 -5.2491e-07
0.00996606 -2.85653e-05 0.00833072
0.0100036 0.00997314 0.00166585
0.0100058 0.00997373 0.00833072
0.00166897 0.00999849 0.00999992
0 0.01 0.00833333
0.00833819 0.00997954 -4.52979e-07
0.00829931 -2.28311e-05 8.14067e-07
0.0083026 -2.22863e-05 0.00999734
0.00834112 0.0099801 0.00999776
0 0 0.00833333
0.00999984 0.00830786 0.00999709
0.00165794 -2.15138e-06 2.85931e-07
0 0 0.00166667
0.00333771 0.00999564 1.26648e-07
0.00997314 0.00163909 0.00999709
0.00996986 0.00163844 2.57354e-07
0.00165899 -1.76569e-06 0.01
0.0016687 0.00999879 8.90578e-08
0 0.01 0.00166667
0.0100065 0.00997374 0.00999717
0 0 0.01
0.0100032 0.00997296 -8.02815e-07
0.00996659 -2.86712e-05 0.0099968
0 0.01 0.01
0.00996325 -2.92423e-05 5.16013e-07
0 0.01 0
0 0 0
0.00500514 0.00999096 -3.77539e-08
0.00331818 -5.56245e-06 0.00999915
0 0.00833333 0.01

CELLS 343 686
1 0
1 1
1 2
1 3
1 4
1 5
1 6
1 7
1 8
1 9
1 10
1 11
1 12
1 13
1 14
1 15
1 16
1 17
1 18
1 19
1 20
1 21
1 22
1 23
1 24
1 25
1 26
1 27
1 28
1 29
1 30
1 31
1 32
1 33
1 34
1 35
1 36
1 37
1 38
1 39
1 40
1 41
1 42
1 43
1 44
1 45
1 46
1 47
1 48
1 49
1 50
1 51
1 52
1 53
1 54
1 55
1 56
1 57
1 58
1 59
1 60
1 61
1 62
1 63
1 64
1 65
1 66
1 67
1 68
1 69
1 70
1 71
1 72
1 73
1 74
1 75
1 76
1 77
1 78
1 79
1 80
1 81
1 82
1 83
1 84
1 85
1 86
1 87
1 88
1 89
1 90
1 91
1 92
1 93
1 94
1 95
1 96
1 97
1 98
1 99
1 100
1 101
1 102
1 103
1 104
1 105
1 106
1 107
1 108
1 109
1 110
1 111
1 112
1 113
1 114
1 115
1 116
1 117
1 118
1 119
1 120
1 121
1 122
1 123
1 124
1 125
1 126
1 127
1 128
1 129
1 130
1 131
1 132
1 133
1 134
1 135
1 136
1 137
1 138
1 139
1 140
1 141
1 142
1 143
1 144
1 145
1 146
1 147
1 148
1 149
1 150
1 151
1 152
1 153
1 154
1 155
1 156
1 157
1 158
1 159
1 160
1 161
1 162
1 163
1 164
1 165
1 166
1 167
1 168
1 169
1 170
1 171
1 172
1 173
1 174
1 175
1 176
1 177
1 178
1 179
1 180
1 181
1 182
1 183
1 184
1 185
1 186
1 187
1 188
1 189
1 190
1 191
1 192
1 193
1 194
1 195
1 196
1 197
1 198
1 199
1 200
1 201
1 202
1 203
1 204
1 205
1 206
1 207
1 208
1 209
1 210
1 211
1 212
1 213
1 214
1 215
1 216
1 217
1 218
1 219
1 220
1 221
1 222
1 223
1 224
1 225
1 226
1 227
1 228
1 229
1 230
1 231
1 232
1 233
1 234
1 235
1 236
1 237
1 238
1 239
1 240
1 241
1 242
1 243
1 244
1 245
1 246
1 247
1 248
1 249
1 250
1 251
1 252
1 253
1 254
1 255
1 256
1 257
1 258
1 259
1 260
1 261
1 262
1 263
1 264
1 265
1 266
1 267
1 268
1 269
1 270
1 271
1 272
1 273
1 274
1 275
1 276
1 277
1 278
1 279
1 280
1 281
1 282
1 283
1 284
1 285
1 286
1 287
1 288
1 289
1 290
1 291
1 292
1 293
1 294
1 295
1 296
1 297
1 298
1 299
1 300
1 301
1 302
1 303
1 304
1 305
1 306
1 307
1 308
1 309
1 310
1 311
1 312
1 313
1 314
1 315
1 316
1 317
1 318
1 319
1 320
1 321
1 322
1 323
1 324
1 325
1 326
1 327
1 328
1 329
1 330
1 331
1 332
1 333
1 334
1 335
1 336
1 337
1 338
1 339
1 340
1 341
1 342

CELL_TYPES 343
1
1
1
1
1
1
1
1
1
1
1
1
1
1
1
1
1
1
1
1
1
1
1
1
1
1
1
1
1
1
1
1
1
1
1
1
1
1
1
1
1
1
1
1
1
1
1
1
1
1
1
1
1
1
1
1
1
1
1
1
1
1
1
1
1
1
1
1
1
1
1
1
1
1
1
1
1
1
1
1
1
1
1
1
1
1
1
1
1
1
1
1
1
1
1
1
1
1
1
1
1
1
1
1
1
1
1
1
1
1
1
1
1
1
1
1
1
1
1
1
1
1
1
1
1
1
1
1
1
1
1
1
1
1
1
1
1
1
1
1
1
1
1
1
1
1
1
1
1
1
1
1
1
1
1
1
1
1
1
1
1
1
1
1
1
1
1
1
1
1
1
1
1
1
1
1
1
1
1
1
1
1
1
1
1
1
1
1
1
1
1
1
1
1
1
1
1
1
1
1
1
1
1
1
1
1
1
1
1
1
1
1
1
1
1
1
1
1
1
1
1
1
1
1
1
1
1
1
1
1
1
1
1
1
1
1
1
1
1
1
1
1
1
1
1
1
1
1
1
1
1
1
1
1
1
1
1
1
1
1
1
1
1
1
1
1
1
1
1
1
1
1
1
1
1
1
1
1
1
1
1
1
1
1
1
1
1
1
1
1
1
1
1
1
1
1
1
1
1
1
1
1
1
1
1
1
1
1
1
1
1
1
1
1
1
1
1
1
1
1
1
1
1
1
1
1
1
1
1
1
1
1
1
1
1
1
1
1
1
1
1
1
1

POINT_DATA 343
FIELD FieldData 3

ExternalForceID_(#) 1 343 int
0
1
2
3
4
5
6
7
8
9
10
11
12
13
14
15
16
17
18
19
20
21
22
23
24
25
26
27
28
29
30
31
32
33
34
35
36
37
38
39
40
41
42
43
44
45
46
47
48
49
50
51
52
53
54
55
56
57
58
59
60
61
62
63
64
65
66
67
68
69
70
71
72
73
74
75
76
77
78
79
80
81
82
83
84
85
86
87
88
89
90
91
92
93
94
95
96
97
98
99
100
101
102
103
104
105
106
107
108
109
110
111
112
113
114
115
116
117
118
119
120
121
122
123
124
125
126
127
128
129
130
131
132
133
134
135
136
137
138
139
140
141
142
143
144
145
146
147
148
149
150
151
152
153
154
155
156
157
158
159
160
161
162
163
164
165
166
167
168
169
170
171
172
173
174
175
176
177
178
179
180
181
182
183
184
185
186
187
188
189
190
191
192
193
194
195
196
197
198
199
200
201
202
203
204
205
206
207
208
209
210
211
212
213
214
215
216
217
218
219
220
221
222
223
224
225
226
227
228
229
230
231
232
233
234
235
236
237
238
239
240
241
242
243
244
245
246
247
248
249
250
251
252
253
254
255
256
257
258
259
260
261
262
263
264
265
266
267
268
269
270
271
272
273
274
275
276
277
278
279
280
281
282
283
284
285
286
287
288
289
290
291
292
293
294
295
296
297
298
299
300
301
302
303
304
305
306
307
308
309
310
311
312
313
314
315
316
317
318
319
320
321
322
323
324
325
326
327
328
329
330
331
332
333
334
335
336
337
338
339
340
341
342

ExternalForceType_(0/1/2/3/4) 1 343 int
0
0
0
0
0
0
0
0
0
0
0
0
0
0
0
0
0
0
0
0
0
0
0
0
0
0
0
0
0
0
0
0
0
0
0
0
0
0
0
0
0
0
0
0
0
0
0
0
0
0
0
0
0
0
0
0
0
0
0
0
0
0
0
0
0
0
0
0
0
0
0
0
0
0
0
0
0
0
0
0
0
0
0
0
0
0
0
0
0
0
0
0
0
0
0
0
0
0
0
0
0
0
0
0
0
0
0
0
0
0
0
0
0
0
0
0
0
0
0
0
0
0
0
0
0
0
0
0
0
0
0
0
0
0
0
0
0
0
0
0
0
0
0
0
0
0
0
0
0
0
0
0
0
0
0
0
0
0
0
0
0
0
0
0
0
0
0
0
0
0
0
0
0
0
0
0
0
0
0
0
0
0
0
0
0
0
0
0
0
0
0
0
0
0
0
0
0
0
0
0
0
0
0
0
0
0
0
0
0
0
0
0
0
0
0
0
0
0
0
0
0
0
0
0
0
0
0
0
0
0
0
0
0
0
0
0
0
0
0
0
0
0
0
0
0
0
0
0
0
0
0
0
0
0
0
0
0
0
0
0
0
0
0
0
0
0
0
0
0
0
0
0
0
0
0
0
0
0
0
0
0
0
0
0
0
0
0
0
0
0
0
0
0
0
0
0
0
0
0
0
0
0
0
0
0
0
0
0
0
0
0
0
0
0
0
0
0
0
0
0
0
0
0
0
0
0
0
0
0
0
0
0
0
0
0
0
0
0
0
0
0
0
0

ExternalForce_(N) 3 343 double
0 -3.09568e-05 0
0 -0.000138619 0
0 -2.16714e-05 0
0 -0.000168226 0
0 -8.26002e-05 0
0 -8.9203e-05 0
0 -9.74165e-05 0
0 -7.37906e-05 0
0 -6.68156e-05 0
0 -5.47617e-05 0
0 -3.04981e-05 0
0 -0.000105531 0
0 -4.77758e-05 0
0 -0.000161821 0
0 -2.96713e-05 0
0 -7.9067e-05 0
0 -6.57564e-05 0
0 -0.000106704 0
0 -4.11017e-05 0
0 -8.006e-05 0
0 -6.02474e-05 0
0 -0.000115662 0
0 -2.18875e-05 0
0 -4.17098e-05 0
0 -0.000107827 0
0 -7.27379e-05 0
0 -4.13856e-05 0
0 -3.85027e-05 0
0 -3.029e-05 0
0 -0.000128774 0
0 -7.57947e-05 0
0 -0.000162261 0
0 -0.000116775 0
0 -7.15802e-05 0
0 -3.74431e-05 0
0 -0.000108892 0
0 -3.74072e-05 0
0 -0.000136493 0
0 -6.25303e-05 0
0 -7.85756e-05 0
0 -7.52544e-05 0
0 -0.000116589 0
0 -0.000160874 0
0 -2.73339e-05 0
0 -8.7662e-05 0
0 -2.53184e-05 0
0 -7.42972e-05 0
0 -4.15199e-05 0
0 -0.000128792 0
0 -3.72945e-05 0
0 -2.72189e-05 0
0 -7.03157e-05 0
0 -0.000119003 0
0 -5.02041e-05 0
0 -8.04153e-05 0
0 -4.4939e-05 0
0 -2.74192e-05 0
0 -3.19929e-05 0
0 -4.04607e-05 0
0 -2.07889e-05 0
0 -3.28809e-05 0
0 -3.54797e-05 0
0 -0.000153858 0
0 -7.19739e-05 0
0 -8.09026e-05 0
0 -4.90862e-05 0
0 -2.77255e-05 0
0 -7.06591e-05 0
0 -3.20606e-05 0
0 -4.10794e-05 0
0 -1.98932e-05 0
0 -2.37551e-05 0
0 -3.0591e-05 0
0 -5.86107e-05 0
0 -5.75946e-05 0
0 -4.01595e-05 0
0 -5.35099e-05 0
0 -2.24477e-05 0
0 -4.41213e-05 0
0 -4.29866e-05 0
0 -4.42325e-05 0
0 -4.30889e-05 0
0 -4.19155e-05 0
0 -5.21923e-05 0
0 -1.5029e-05 0
0 -2.34331e-05 0
0 -1.9903e-05 0
0 -4.30461e-05 0
0 -3.11931e-05 0
0 -3.08326e-05 0
0 -4.52797e-05 0
0 -5.7648e-05 0
0 -8.02544e-05 0
0 -2.43623e-05 0
0 -0.000150893 0
0 -3.43039e-05 0
0 -7.21258e-05 0
0 -1.97489e-05 0
0 -2.00202e-05 0
0 -7.83017e-05 0
0 -4.32908e-05 0
0 -7.00326e-05 0
0 -1.17841e-05 0
0 -4.93779e-05 0
0 -1.58193e-05 0
0 -4.04762e-05 0
0 -8.57147e-05 0
0 -4.2953e-05 0
0 -7.82027e-05 0
0 -2.09499e-05 0
0 -3.31713e-05 0
0 -9.30599e-05 0
0 -7.26197e-05 0
0 -1.76801e-05 0
0 -2.06228e-05 0
0 -7.8371e-05 0
0 -1.84411e-05 0
0 -7.30662e-05 0
0 -4.11806e-05 0
0 -2.3265e-05 0
0 -4.23503e-05 0
0 -5.94919e-05 0
0 -4.22718e-05 0
0 -2.12723e-05 0
0 -1.86252e-05 0
0 -1.77849e-05 0
0 -3.82356e-05 0
0 -2.39658e-05 0
0 -1.62481e-05 0
0 -7.86148e-05 0
0 -1.61387e-05 0
0 -2.34763e-05 0
0 -2.95637e-05 0
0 -2.93742e-05 0
0 -1.33947e-05 0
0 -1.83735e-05 0
0 -2.05639e-05 0
0 -1.91062e-05 0
0 -1.84053e-05 0
0 -6.25793e-05 0
0 -4.49914e-05 0
0 -1.98914e-05 0
0 -1.58922e-05 0
0 -2.367e-05 0
0 -3.81266e-05 0
0 -4.36518e-05 0
0 -2.25472e-05 0
0 -0.000115119 0
0 -3.05886e-05 0
0 -1.32828e-05 0
0 -3.38507e-05 0
0 -1.78391e-05 0
0 -2.88237e-05 0
0 -1.34771e-05 0
0 -2.36876e-05 0
0 -2.06453e-05 0
0 -2.58912e-05 0
0 -2.10097e-05 0
0 -1.7602e-05 0
0 -3.13896e-05 0
0 -1.34386e-05 0
0 -2.38863e-05 0
0 -2.04203e-05 0
0 -1.33426e-05 0
0 -2.13076e-05 0
0 -1.86316e-05 0
0 -3.10974e-05 0
0 -2.56228e-05 0
0 -2.33161e-05 0
0 -1.57181e-05 0
0 -1.87061e-05 0
0 -5.38771e-05 0
0 -1.84308e-05 0
0 -3.08341e-05 0
0 -2.91652e-05 0
0 -1.16203e-05 0
0 -1.85667e-05 0
0 -2.00287e-05 0
0 -2.68375e-05 0
0 -2.37799e-05 0
0 -3.16945e-05 0
0 -3.13676e-05 0
0 -3.15313e-05 0
0 -1.90796e-05 0
0 -1.58134e-05 0
0 -1.83326e-05 0
0 -3.16308e-05 0
0 -2.07128e-05 0
0 -2.91276e-05 0
0 -6.03597e-05 0
0 -2.26581e-05 0
0 -2.35174e-05 0
0 -2.33506e-05 0
0 -2.59482e-05 0
0 -1.63393e-05 0
0 -1.78912e-05 0
0 -2.02658e-05 0
0 -5.62379e-05 0
0 -2.04507e-05 0
0 -2.14176e-05 0
0 -2.38895e-05 0
0 -3.05955e-05 0
0 -3.11287e-05 0
0 -2.01544e-05 0
0 -1.92198e-05 0
0 -2.99909e-05 0
0 -6.32085e-05 0
0 -2.04829e-05 0
0 -2.67435e-05 0
0 -2.11611e-05 0
0 -1.83262e-05 0
0 -1.96474e-05 0
0 -2.0699e-05 0
0 -2.83503e-05 0
0 -2.27807e-05 0
0 -2.35234e-05 0
0 -1.93874e-05 0
0 -6.29086e-05 0
0 -2.12117e-05 0
0 -3.22943e-05 0
0 -2.06229e-05 0
0 -2.61501e-05 0
0 -1.90721e-05 0
0 -2.86319e-05 0
0 -2.53212e-05 0
0 -2.07681e-05 0
0 -2.05553e-05 0
0 -1.88077e-05 0
0 -6.92631e-05 0
0 -2.20924e-05 0
0 -2.02457e-05 0
0 -6.16224e-05 0
0 -2.08117e-05 0
0 -2.85397e-05 0
0 -2.08875e-05 0
0 -6.32617e-05 0
0 -1.39008e-05 0
0 -2.0289e-05 0
0 -6.45558e-05 0
0 -2.47785e-05 0
0 -2.35177e-05 0
0 -7.28089e-06 0
0 -2.18143e-05 0
0 -6.93323e-06 0
0 -6.87344e-06 0
0 -8.76768e-06 0
0 -2.48719e-05 0
0 -2.22231e-05 0
0 -1.31068e-05 0
0 -7.69816e-06 0
0 -2.27889e-05 0
0 -5.95166e-06 0
0 -6.55579e-06 0
0 -6.71305e-06 0
0 -2.46468e-05 0
0 -2.27228e-05 0
0 -7.6878e-06 0
0 -6.67903e-06 0
0 -6.10861e-05 0
0 -6.6189e-06 0
0 -6.52665e-06 0
0 -6.87836e-06 0
0 -1.78856e-05 0
0 -1.87072e-05 0
0 -6.73674e-06 0
0 -6.91401e-06 0
0 -1.82903e-05 0
0 -2.2423e-05 0
0 -6.67521e-06 0
0 -7.02401e-06 0
0 -1.78908e-05 0
0 -5.89658e-06 0
0 -1.98938e-05 0
0 -7.3162e-06 0
0 -5.63509e-06 0
0 -1.76631e-05 0
0 -1.42638e-05 0
0 -2.22707e-05 0
0 -1.77204e-05 0
0 -2.11264e-05 0
0 -1.75686e-05 0
0 -1.76047e-05 0
0 -6.69346e-06 0
0 -2.20467e-05 0
0 -1.42479e-05 0
0 -1.76144e-05 0
0 -6.84615e-06 0
0 -6.12404e-06 0
0 -6.50125e-06 0
0 -1.41879e-05 0
0 -1.37476e-05 0
0 -2.11168e-05 0
0 -1.79377e-05 0
0 -1.37282e-05 0
0 -1.41198e-05 0
0 -2.15061e-05 0
0 -6.84475e-06 0
0 -1.74349e-05 0
0 -1.75758e-05 0
0 -6.41828e-06 0
0 -7.20025e-06 0
0 -2.30432e-05 0
0 -6.96894e-06 0
0 -6.44499e-06 0
0 -6.14414e-06 0
0 -2.14766e-05 0
0 -6.00855e-06 0
0 -5.92427e-06 0
0 -5.81567e-06 0
0 -5.02303e-06 0
0 -5.01945e-06 0
0 -4.85271e-06 0
0 -4.87573e-06 0
0 -4.8684e-06 0
0 -5.22951e-06 0
0 -4.84801e-06 0
0 -4.88396e-06 0
0 -4.77612e-06 0
0 -4.81304e-06 0
0 -4.85251e-06 0
0 -4.8555e-06 0
0 -4.82575e-06 0
0 -4.80313e-06 0
0 -4.86923e-06 0
0 -4.85781e-06 0
0 -4.73027e-06 0
0 -1.08748e-05 0
0 -5.22863e-06 0
0 -5.34413e-06 0
0 -5.26459e-06 0
0 -5.05624e-06 0
0 -4.92238e-06 0
0 -5.43253e-06 0
0 -5.43253e-06 0
0 -5.43253e-06 0
0 -5.43253e-06 0
0 -5.43253e-06 0
0 -5.43253e-06 0
0 -5.40321e-06 0
0 -5.40321e-06 0
0 -7.3113e-06 0
0 -6.98147e-06 0
0 -4.8949e-06 0

