# vtk DataFile Version 4.2
vtk output
ASCII
DATASET UNSTRUCTURED_GRID

POINTS 343 double
0.00112517 0.00419538 0
0.00217516 0.00498381 0.00217516
0 0.00419538 0.00112517
0.00193665 0.00195564 0.00194191
0.00518657 0.00241572 0.00503224
0.00518446 0.00383768 0.00639804
0.00763621 0.00479137 0.00499981
0.00623627 0.00486135 0.00369189
0.00685305 0.00330228 0.00691508
0.00499996 0.00499935 0.00499996
0.00419538 0.00112517 0.01
0.00529818 0.00208969 0.00790508
0.00420921 0 0.00831801
0.00201878 0.00200353 0.00803302
0.00429792 0.00253898 0.01
0.00696217 0.00645961 0.00694823
0.00642051 0.00619354 0.00518368
0.00226787 0.00218616 0.00514606
0 0.00143586 0.00417514
0.00159877 0.00346676 0.00403707
0.00685595 0.00320806 0.00316152
0.00776866 0.00223099 0.00506471
0 0.00270918 0.00154168
0.00417514 0.00143586 0
0.00502575 0.0021968 0.0021974
0.00397311 0.00353154 0.00160273
0.00135165 0 0.00405993
0.00420402 0 0.00168765
0.00262895 0.00695361 0
0.00193925 0.00805364 0.00194472
0.00409268 0.00625234 0.00164483
0.00800324 0.00800276 0.00799926
0.00797724 0.0048325 0.00802421
0.00839736 0.00609797 0.00594939
0.01 0.00885053 0.00419359
0.00757952 0.00765108 0.00496466
0.00856197 0.01 0.00416784
0.00797951 0.00798835 0.00201638
0.00354586 0.00304033 0.00695968
0.0044477 0.00366745 0.00832466
0.00390747 0.00160629 0.00596897
0.00500598 0.00767531 0.00767749
0.00199045 0.00800885 0.00798977
0.0028241 0.01 0.00712757
0.00391597 0.00840419 0.00595813
0 0.00695361 0.00262895
0.00164875 0.00624007 0.00408782
0 0.0040177 0.00850214
0.00231871 0.00498705 0.00766155
0.00143586 0.00417514 0.01
0.00717692 0.00713172 0.01
0.00612402 0.00598069 0.00841867
0.00205318 0.00794239 0.00474184
0.00304638 0.00694508 0.00646788
0.00158913 0.00607902 0.00592597
0.01 0.00580816 0.00831736
0 0.00718191 0.00711644
0.00158701 0.00577432 0
0 0.00577432 0.00158701
0.01 0.00718191 0.00711644
0.00287343 0.00335182 0.01
0.01 0.00143586 0.00417514
0.00806242 0.00196225 0.00197878
0.00840919 0.00352154 0.00399883
0.00374067 0.00165348 0.00412804
0.00150843 0.01 0.00581511
0.0028241 0 0.00712757
0.00612176 0.00418177 0.00837713
0.01 0.00727418 0.00419576
0.00856197 0 0.00416784
0.00335182 0.00287343 0
0.00270918 0.00154168 0.01
0.00283328 0 0.00283191
0.00480546 0.00520014 0.00755485
0.00316719 0.00314918 0.00316719
0 0.00849157 0.00581511
0.00487759 0.00367658 0.00378597
0.00154168 0.00270918 0
0.00579743 0.00832554 0.01
0.00597788 0.01 0.00850617
0.00420921 0.01 0.00831801
0.00401591 0.00850351 0.01
0.01 0.00849157 0.00581511
0.0031507 0.00683605 0.0031507
0 0.00748929 0.00137438
0.00137438 0.00748929 0
0 0.00287343 0.00335182
0 0.00580816 0.00831736
0 0.00429792 0.00253898
0.00253898 0.00429792 0
0.00143551 0.00581971 0.01
0.00517984 0.00647575 0.00640057
0.00360643 0.00651236 0.00823434
0.00695051 0.00262738 0.01
0.008023 0.00195849 0.00803588
0.00697221 0 0.00308146
0.0060228 0.0016647 0.00361236
0.01 0.00287343 0.00335182
0 0.00140616 0.00256446
0.00637301 0.00822811 0.00642127
0.00581971 0.00143551 0
0.00603849 0.00355218 0.0016028
0.00315389 0.01 0.00582518
0.00855662 0.01 0.00583333
0.00256446 0.00140616 0
0.00597788 0 0.00149383
0.00628062 0.0082881 0.00361711
0.00855662 0 0.00583333
0.00620812 0.00167315 0.00636537
0.00140616 0.00256446 0.01
0.00711644 0.00718191 0
0.00516686 0.00769019 0.0021687
0.00594378 0.00609343 0.00160162
0 0.00686719 0.00578184
0.01 0.00140616 0.00256446
0.00177659 0.0036107 0.00640774
0.01 0.00848692 0.00262374
0.0084129 0.00618912 0.00413274
0.00597788 0.01 0.00149383
0.00697083 0 0.00692668
0.01 0.00143551 0.00581971
0.0083982 0.00357325 0.00606094
0.00150843 0 0.00581511
0 0.0013659 0.00748679
0.00136949 0 0.00752883
0.01 0.00686719 0.00578184
0.00581511 0.00849157 0
0 0.0075208 0.00859127
0.0013659 0.00748679 0.01
0.0042311 0.00820584 0.00362816
0.00858944 0.01 0.00751222
0.01 0.00863025 0.00752641
0.00577432 0.00158701 0.01
0.0072587 0.00418789 0.01
0 0.0057735 0.00666667
0.00136949 0.01 0.00752883
0 0.00863025 0.00752641
0.00858871 0 0.00250706
0.01 0.00695361 0.00262895
0.00846008 0.00634203 0.00216274
0.00850865 0.00582373 0.01
0.00748929 0.00137438 0.01
0.00858944 0 0.00751222
0.01 0.0013659 0.00748679
0 0.00143551 0.00581971
0.00597788 0 0.00850617
0.00421447 0 0.00339951
0.00793545 0.00470772 0.00203422
0.01 0.00429792 0.00253898
0.0042265 0.01 0.00666667
0.00283328 0.01 0.00283191
0.00131307 0 0.00241807
0 0.00727418 0.00419576
0.01 0.0057735 0.00666667
0.00697221 0.01 0.00308146
0.0075057 0.00863689 0.01
0 0.00574334 0.00336387
0 0.0043297 0.00416652
0.00686883 0.00578401 0.01
0.01 0.00302218 0.00691532
0.0042265 0 0.00666667
0.00247706 0.01 0.00861162
0.00748679 0.0013659 0
0.0057735 0.00666667 0.01
0.01 0.0075208 0.00859127
0.00860739 0.00755348 0.01
0.00691532 0.00302218 0
0.00336387 0.00574334 0
0.00752641 0.00863025 0
0.00751459 0.01 0.0013873
0.00578184 0.00686719 0
0.00697536 0.00637074 0.00303308
0.00751459 0 0.0013873
0.00288419 0.00499914 0.01
0.00433013 0.00583333 0.01
0.0043297 0.00416652 0.01
0.00751451 0.01 0.00861597
0.00247706 0 0.00861162
0.01 0.00574334 0.00336387
0 0.00302218 0.00691532
0.01 0.0040177 0.00850214
0.00850214 0.0040177 0
0.01 0.00270918 0.00154168
0 0.00244495 0.00857025
0.00244495 0.00857025 0.01
0.00751451 0 0.00861597
0.00848692 0.00262374 0.01
0.00885085 0.00419374 0.01
0.00566987 0.01 0.00583333
0.00518657 0.00758361 0.00503224
0.00564211 0.01 0.00421504
0.00697083 0.01 0.00692668
0.00302218 0.00691532 0.01
0.00416652 0.0043297 0
0.00283588 0 0.00440435
0.00315389 0 0.00582518
0.01 0.00419538 0.00112517
0.00363802 0.00833765 0.00158807
0.01 0.0043297 0.00416652
0.00666667 0.0057735 0
0.00858871 0.01 0.00250706
0 0.00848692 0.00262374
0.00135165 0.01 0.00405993
0 0.00885053 0.00419359
0.00419359 0.00885053 0
0.00420402 0.01 0.00168765
0.00499981 0.00479137 0.00237857
0.00721958 0.00452174 0
0.00564211 0 0.00421504
0.00566987 0 0.00583333
0.00131307 0.01 0.00241807
0.00857025 0.00244495 0
0.01 0.00452174 0.00721958
0.00711414 0.01 0.0050002
0.00574334 0.00336387 0.01
0.0024588 0 0.0013563
0.01 0.00244495 0.00857025
0.00239627 0.00479137 0.00499981
0.00583333 0.00433013 0
0.00831736 0.00580816 0
0.00547857 0.01 0.00722041
0.01 0.00433013 0.00583333
0.00540214 0.01 0.0027755
0.00711414 0 0.0050002
0.00283588 0.01 0.00440435
0 0.00452174 0.00721958
0.00452108 0.00722007 0.01
0.00547857 0 0.00722041
0.00360457 0.00507396 0.00359635
0.0042513 0.01 0.00500806
0.0042513 0 0.00500806
0.00367236 0.00521691 0.00617453
0 0.005744 0.00499998
0 0.00433013 0.00583333
0.00499998 0.005744 0
0.00498558 0.00633908 0.00355348
0.00540214 0 0.0027755
0.01 0.005744 0.00499998
0.00369201 0.00640783 0.00484382
0.005744 0.00499998 0.01
0.01 0.00577432 0.00158701
0 0.00666667 0
0.00859127 0.0075208 0
0.00333333 0 0
0 0.01 0.00666667
0.005 0.01 0.01
0 0.00288419 0.00499914
0.01 0.00748929 0.00137438
0.01 0.00666667 0
0 0.005 0.01
0.00499914 0.00288419 0
0 0.005 0
0.01 0 0.00333333
0.01 0.01 0.00666667
0.00419576 0.00727418 0
0.01 0.00288419 0.00499914
0.005 0 0
0 0 0.00666667
0.00380023 0.00361676 0.00522617
0.005 0 0.01
0.01 0 0.00666667
0 0 0.005
0.00877992 0.01 0.00122008
0.01 0.00877992 0.00122008
0.01 0 0.005
0.01 0.005 0
0.00122008 0.00122008 0
0 0.00122008 0.00122008
0 0.00333333 0.01
0 0.00666667 0.01
0.00877992 0.00877992 0
0.01 0.01 0.00333333
0.00421447 0.01 0.00339951
0.01 0.00666667 0.01
0 0.00333333 0
0 0.00122008 0.00877992
0.00122008 0 0.00877992
0.00122008 0.00122008 0.01
0.00877992 0.01 0.00877992
0.00122008 0.00877992 0.01
0 0.00877992 0.00877992
0.01 0.00877992 0.00877992
0.00666667 0.01 0
0.01 0.00122008 0.00122008
0.00122008 0.01 0.00877992
0.00877992 0.00877992 0.01
0.01 0.005 0.01
0 0 0.00333333
0.00666667 0 0
0.00877992 0 0.00122008
0.0012116 0 0.0012116
0 0.00877992 0.00122008
0.00122008 0.00877992 0
0.0012116 0.01 0.0012116
0.01 0.00122008 0.00877992
0.00877992 0.00122008 0.01
0.00666667 0 0.01
0.00877992 0.00122008 0
0.00877992 0 0.00877992
0.01 0.00333333 0
0.00333333 0.01 0.01
0.0024588 0.01 0.0013563
0.00666667 0.01 0.01
0.01 0.00333333 0.01
0 0.01 0.005
0.00262374 0.00848692 0
0.01 0.01 0.005
0 0.01 0.00333333
0 0.00166667 0
0.01 0 0.00166667
0 0.00166667 0.01
0 0.00833333 0
0.01 0.00833333 0
0.01 0 0.00833333
0.01 0.01 0.00166667
0.01 0.01 0.00833333
0.00166667 0.01 0.01
0 0.01 0.00833333
0.00833333 0.01 0
0.00833333 0 0
0.00833333 0 0.01
0.00833333 0.01 0.01
0 0 0.00833333
0.01 0.00833333 0.01
0.00166667 0 0
0 0 0.00166667
0.00333333 0.01 0
0.01 0.00166667 0.01
0.01 0.00166667 0
0.00166667 0 0.01
0.00166667 0.01 0
0 0.01 0.00166667
0.01 0.01 0.01
0 0 0.01
0.01 0.01 0
0.01 0 0.01
0 0.01 0.01
0.01 0 0
0 0.01 0
0 0 0
0.005 0.01 0
0.00333333 0 0.01
0 0.00833333 0.01

CELLS 343 686
1 0
1 1
1 2
1 3
1 4
1 5
1 6
1 7
1 8
1 9
1 10
1 11
1 12
1 13
1 14
1 15
1 16
1 17
1 18
1 19
1 20
1 21
1 22
1 23
1 24
1 25
1 26
1 27
1 28
1 29
1 30
1 31
1 32
1 33
1 34
1 35
1 36
1 37
1 38
1 39
1 40
1 41
1 42
1 43
1 44
1 45
1 46
1 47
1 48
1 49
1 50
1 51
1 52
1 53
1 54
1 55
1 56
1 57
1 58
1 59
1 60
1 61
1 62
1 63
1 64
1 65
1 66
1 67
1 68
1 69
1 70
1 71
1 72
1 73
1 74
1 75
1 76
1 77
1 78
1 79
1 80
1 81
1 82
1 83
1 84
1 85
1 86
1 87
1 88
1 89
1 90
1 91
1 92
1 93
1 94
1 95
1 96
1 97
1 98
1 99
1 100
1 101
1 102
1 103
1 104
1 105
1 106
1 107
1 108
1 109
1 110
1 111
1 112
1 113
1 114
1 115
1 116
1 117
1 118
1 119
1 120
1 121
1 122
1 123
1 124
1 125
1 126
1 127
1 128
1 129
1 130
1 131
1 132
1 133
1 134
1 135
1 136
1 137
1 138
1 139
1 140
1 141
1 142
1 143
1 144
1 145
1 146
1 147
1 148
1 149
1 150
1 151
1 152
1 153
1 154
1 155
1 156
1 157
1 158
1 159
1 160
1 161
1 162
1 163
1 164
1 165
1 166
1 167
1 168
1 169
1 170
1 171
1 172
1 173
1 174
1 175
1 176
1 177
1 178
1 179
1 180
1 181
1 182
1 183
1 184
1 185
1 186
1 187
1 188
1 189
1 190
1 191
1 192
1 193
1 194
1 195
1 196
1 197
1 198
1 199
1 200
1 201
1 202
1 203
1 204
1 205
1 206
1 207
1 208
1 209
1 210
1 211
1 212
1 213
1 214
1 215
1 216
1 217
1 218
1 219
1 220
1 221
1 222
1 223
1 224
1 225
1 226
1 227
1 228
1 229
1 230
1 231
1 232
1 233
1 234
1 235
1 236
1 237
1 238
1 239
1 240
1 241
1 242
1 243
1 244
1 245
1 246
1 247
1 248
1 249
1 250
1 251
1 252
1 253
1 254
1 255
1 256
1 257
1 258
1 259
1 260
1 261
1 262
1 263
1 264
1 265
1 266
1 267
1 268
1 269
1 270
1 271
1 272
1 273
1 274
1 275
1 276
1 277
1 278
1 279
1 280
1 281
1 282
1 283
1 284
1 285
1 286
1 287
1 288
1 289
1 290
1 291
1 292
1 293
1 294
1 295
1 296
1 297
1 298
1 299
1 300
1 301
1 302
1 303
1 304
1 305
1 306
1 307
1 308
1 309
1 310
1 311
1 312
1 313
1 314
1 315
1 316
1 317
1 318
1 319
1 320
1 321
1 322
1 323
1 324
1 325
1 326
1 327
1 328
1 329
1 330
1 331
1 332
1 333
1 334
1 335
1 336
1 337
1 338
1 339
1 340
1 341
1 342

CELL_TYPES 343
1
1
1
1
1
1
1
1
1
1
1
1
1
1
1
1
1
1
1
1
1
1
1
1
1
1
1
1
1
1
1
1
1
1
1
1
1
1
1
1
1
1
1
1
1
1
1
1
1
1
1
1
1
1
1
1
1
1
1
1
1
1
1
1
1
1
1
1
1
1
1
1
1
1
1
1
1
1
1
1
1
1
1
1
1
1
1
1
1
1
1
1
1
1
1
1
1
1
1
1
1
1
1
1
1
1
1
1
1
1
1
1
1
1
1
1
1
1
1
1
1
1
1
1
1
1
1
1
1
1
1
1
1
1
1
1
1
1
1
1
1
1
1
1
1
1
1
1
1
1
1
1
1
1
1
1
1
1
1
1
1
1
1
1
1
1
1
1
1
1
1
1
1
1
1
1
1
1
1
1
1
1
1
1
1
1
1
1
1
1
1
1
1
1
1
1
1
1
1
1
1
1
1
1
1
1
1
1
1
1
1
1
1
1
1
1
1
1
1
1
1
1
1
1
1
1
1
1
1
1
1
1
1
1
1
1
1
1
1
1
1
1
1
1
1
1
1
1
1
1
1
1
1
1
1
1
1
1
1
1
1
1
1
1
1
1
1
1
1
1
1
1
1
1
1
1
1
1
1
1
1
1
1
1
1
1
1
1
1
1
1
1
1
1
1
1
1
1
1
1
1
1
1
1
1
1
1
1
1
1
1
1
1
1
1
1
1
1
1
1
1
1
1
1
1
1
1
1
1
1
1
1
1
1
1
1
1
1
1
1
1
1
1

POINT_DATA 343
FIELD FieldData 3

ExternalForceID_(#) 1 343 int
0
1
2
3
4
5
6
7
8
9
10
11
12
13
14
15
16
17
18
19
20
21
22
23
24
25
26
27
28
29
30
31
32
33
34
35
36
37
38
39
40
41
42
43
44
45
46
47
48
49
50
51
52
53
54
55
56
57
58
59
60
61
62
63
64
65
66
67
68
69
70
71
72
73
74
75
76
77
78
79
80
81
82
83
84
85
86
87
88
89
90
91
92
93
94
95
96
97
98
99
100
101
102
103
104
105
106
107
108
109
110
111
112
113
114
115
116
117
118
119
120
121
122
123
124
125
126
127
128
129
130
131
132
133
134
135
136
137
138
139
140
141
142
143
144
145
146
147
148
149
150
151
152
153
154
155
156
157
158
159
160
161
162
163
164
165
166
167
168
169
170
171
172
173
174
175
176
177
178
179
180
181
182
183
184
185
186
187
188
189
190
191
192
193
194
195
196
197
198
199
200
201
202
203
204
205
206
207
208
209
210
211
212
213
214
215
216
217
218
219
220
221
222
223
224
225
226
227
228
229
230
231
232
233
234
235
236
237
238
239
240
241
242
243
244
245
246
247
248
249
250
251
252
253
254
255
256
257
258
259
260
261
262
263
264
265
266
267
268
269
270
271
272
273
274
275
276
277
278
279
280
281
282
283
284
285
286
287
288
289
290
291
292
293
294
295
296
297
298
299
300
301
302
303
304
305
306
307
308
309
310
311
312
313
314
315
316
317
318
319
320
321
322
323
324
325
326
327
328
329
330
331
332
333
334
335
336
337
338
339
340
341
342

ExternalForceType_(0/1/2/3/4) 1 343 int
0
0
0
0
0
0
0
0
0
0
0
0
0
0
0
0
0
0
0
0
0
0
0
0
0
0
0
0
0
0
0
0
0
0
0
0
0
0
0
0
0
0
0
0
0
0
0
0
0
0
0
0
0
0
0
0
0
0
0
0
0
0
0
0
0
0
0
0
0
0
0
0
0
0
0
0
0
0
0
0
0
0
0
0
0
0
0
0
0
0
0
0
0
0
0
0
0
0
0
0
0
0
0
0
0
0
0
0
0
0
0
0
0
0
0
0
0
0
0
0
0
0
0
0
0
0
0
0
0
0
0
0
0
0
0
0
0
0
0
0
0
0
0
0
0
0
0
0
0
0
0
0
0
0
0
0
0
0
0
0
0
0
0
0
0
0
0
0
0
0
0
0
0
0
0
0
0
0
0
0
0
0
0
0
0
0
0
0
0
0
0
0
0
0
0
0
0
0
0
0
0
0
0
0
0
0
0
0
0
0
0
0
0
0
0
0
0
0
0
0
0
0
0
0
0
0
0
0
0
0
0
0
0
0
0
0
0
0
0
0
0
0
0
0
0
0
0
0
0
0
0
0
0
0
0
0
0
0
0
0
0
0
0
0
0
0
0
0
0
0
0
0
0
0
0
0
0
0
0
0
0
0
0
0
0
0
0
0
0
0
0
0
0
0
0
0
0
0
0
0
0
0
0
0
0
0
0
0
0
0
0
0
0
0
0
0
0
0
0
0
0
0
0
0
0
0
0
0
0
0
0
0
0
0
0
0
0
0
0
0
0
0
0

ExternalForce_(N) 3 343 double
0 -3.09568e-05 0
0 -0.000138619 0
0 -2.16714e-05 0
0 -0.000168226 0
0 -8.26002e-05 0
0 -8.9203e-05 0
0 -9.74165e-05 0
0 -7.37906e-05 0
0 -6.68156e-05 0
0 -5.47617e-05 0
0 -3.04981e-05 0
0 -0.000105531 0
0 -4.77758e-05 0
0 -0.000161821 0
0 -2.96713e-05 0
0 -7.9067e-05 0
0 -6.57564e-05 0
0 -0.000106704 0
0 -4.11017e-05 0
0 -8.006e-05 0
0 -6.02474e-05 0
0 -0.000115662 0
0 -2.18875e-05 0
0 -4.17098e-05 0
0 -0.000107827 0
0 -7.27379e-05 0
0 -4.13856e-05 0
0 -3.85027e-05 0
0 -3.029e-05 0
0 -0.000128774 0
0 -7.57947e-05 0
0 -0.000162261 0
0 -0.000116775 0
0 -7.15802e-05 0
0 -3.74431e-05 0
0 -0.000108892 0
0 -3.74072e-05 0
0 -0.000136493 0
0 -6.25303e-05 0
0 -7.85756e-05 0
0 -7.52544e-05 0
0 -0.000116589 0
0 -0.000160874 0
0 -2.73339e-05 0
0 -8.7662e-05 0
0 -2.53184e-05 0
0 -7.42972e-05 0
0 -4.15199e-05 0
0 -0.000128792 0
0 -3.72945e-05 0
0 -2.72189e-05 0
0 -7.03157e-05 0
0 -0.000119003 0
0 -5.02041e-05 0
0 -8.04153e-05 0
0 -4.4939e-05 0
0 -2.74192e-05 0
0 -3.19929e-05 0
0 -4.04607e-05 0
0 -2.07889e-05 0
0 -3.28809e-05 0
0 -3.54797e-05 0
0 -0.000153858 0
0 -7.19739e-05 0
0 -8.09026e-05 0
0 -4.90862e-05 0
0 -2.77255e-05 0
0 -7.06591e-05 0
0 -3.20606e-05 0
0 -4.10794e-05 0
0 -1.98932e-05 0
0 -2.37551e-05 0
0 -3.0591e-05 0
0 -5.86107e-05 0
0 -5.75946e-05 0
0 -4.01595e-05 0
0 -5.35099e-05 0
0 -2.24477e-05 0
0 -4.41213e-05 0
0 -4.29866e-05 0
0 -4.42325e-05 0
0 -4.30889e-05 0
0 -4.19155e-05 0
0 -5.21923e-05 0
0 -1.5029e-05 0
0 -2.34331e-05 0
0 -1.9903e-05 0
0 -4.30461e-05 0
0 -3.11931e-05 0
0 -3.08326e-05 0
0 -4.52797e-05 0
0 -5.7648e-05 0
0 -8.02544e-05 0
0 -2.43623e-05 0
0 -0.000150893 0
0 -3.43039e-05 0
0 -7.21258e-05 0
0 -1.97489e-05 0
0 -2.00202e-05 0
0 -7.83017e-05 0
0 -4.32908e-05 0
0 -7.00326e-05 0
0 -1.17841e-05 0
0 -4.93779e-05 0
0 -1.58193e-05 0
0 -4.04762e-05 0
0 -8.57147e-05 0
0 -4.2953e-05 0
0 -7.82027e-05 0
0 -2.09499e-05 0
0 -3.31713e-05 0
0 -9.30599e-05 0
0 -7.26197e-05 0
0 -1.76801e-05 0
0 -2.06228e-05 0
0 -7.8371e-05 0
0 -1.84411e-05 0
0 -7.30662e-05 0
0 -4.11806e-05 0
0 -2.3265e-05 0
0 -4.23503e-05 0
0 -5.94919e-05 0
0 -4.22718e-05 0
0 -2.12723e-05 0
0 -1.86252e-05 0
0 -1.77849e-05 0
0 -3.82356e-05 0
0 -2.39658e-05 0
0 -1.62481e-05 0
0 -7.86148e-05 0
0 -1.61387e-05 0
0 -2.34763e-05 0
0 -2.95637e-05 0
0 -2.93742e-05 0
0 -1.33947e-05 0
0 -1.83735e-05 0
0 -2.05639e-05 0
0 -1.91062e-05 0
0 -1.84053e-05 0
0 -6.25793e-05 0
0 -4.49914e-05 0
0 -1.98914e-05 0
0 -1.58922e-05 0
0 -2.367e-05 0
0 -3.81266e-05 0
0 -4.36518e-05 0
0 -2.25472e-05 0
0 -0.000115119 0
0 -3.05886e-05 0
0 -1.32828e-05 0
0 -3.38507e-05 0
0 -1.78391e-05 0
0 -2.88237e-05 0
0 -1.34771e-05 0
0 -2.36876e-05 0
0 -2.06453e-05 0
0 -2.58912e-05 0
0 -2.10097e-05 0
0 -1.7602e-05 0
0 -3.13896e-05 0
0 -1.34386e-05 0
0 -2.38863e-05 0
0 -2.04203e-05 0
0 -1.33426e-05 0
0 -2.13076e-05 0
0 -1.86316e-05 0
0 -3.10974e-05 0
0 -2.56228e-05 0
0 -2.33161e-05 0
0 -1.57181e-05 0
0 -1.87061e-05 0
0 -5.38771e-05 0
0 -1.84308e-05 0
0 -3.08341e-05 0
0 -2.91652e-05 0
0 -1.16203e-05 0
0 -1.85667e-05 0
0 -2.00287e-05 0
0 -2.68375e-05 0
0 -2.37799e-05 0
0 -3.16945e-05 0
0 -3.13676e-05 0
0 -3.15313e-05 0
0 -1.90796e-05 0
0 -1.58134e-05 0
0 -1.83326e-05 0
0 -3.16308e-05 0
0 -2.07128e-05 0
0 -2.91276e-05 0
0 -6.03597e-05 0
0 -2.26581e-05 0
0 -2.35174e-05 0
0 -2.33506e-05 0
0 -2.59482e-05 0
0 -1.63393e-05 0
0 -1.78912e-05 0
0 -2.02658e-05 0
0 -5.62379e-05 0
0 -2.04507e-05 0
0 -2.14176e-05 0
0 -2.38895e-05 0
0 -3.05955e-05 0
0 -3.11287e-05 0
0 -2.01544e-05 0
0 -1.92198e-05 0
0 -2.99909e-05 0
0 -6.32085e-05 0
0 -2.04829e-05 0
0 -2.67435e-05 0
0 -2.11611e-05 0
0 -1.83262e-05 0
0 -1.96474e-05 0
0 -2.0699e-05 0
0 -2.83503e-05 0
0 -2.27807e-05 0
0 -2.35234e-05 0
0 -1.93874e-05 0
0 -6.29086e-05 0
0 -2.12117e-05 0
0 -3.22943e-05 0
0 -2.06229e-05 0
0 -2.61501e-05 0
0 -1.90721e-05 0
0 -2.86319e-05 0
0 -2.53212e-05 0
0 -2.07681e-05 0
0 -2.05553e-05 0
0 -1.88077e-05 0
0 -6.92631e-05 0
0 -2.20924e-05 0
0 -2.02457e-05 0
0 -6.16224e-05 0
0 -2.08117e-05 0
0 -2.85397e-05 0
0 -2.08875e-05 0
0 -6.32617e-05 0
0 -1.39008e-05 0
0 -2.0289e-05 0
0 -6.45558e-05 0
0 -2.47785e-05 0
0 -2.35177e-05 0
0 -7.28089e-06 0
0 -2.18143e-05 0
0 -6.93323e-06 0
0 -6.87344e-06 0
0 -8.76768e-06 0
0 -2.48719e-05 0
0 -2.22231e-05 0
0 -1.31068e-05 0
0 -7.69816e-06 0
0 -2.27889e-05 0
0 -5.95166e-06 0
0 -6.55579e-06 0
0 -6.71305e-06 0
0 -2.46468e-05 0
0 -2.27228e-05 0
0 -7.6878e-06 0
0 -6.67903e-06 0
0 -6.10861e-05 0
0 -6.6189e-06 0
0 -6.52665e-06 0
0 -6.87836e-06 0
0 -1.78856e-05 0
0 -1.87072e-05 0
0 -6.73674e-06 0
0 -6.91401e-06 0
0 -1.82903e-05 0
0 -2.2423e-05 0
0 -6.67521e-06 0
0 -7.02401e-06 0
0 -1.78908e-05 0
0 -5.89658e-06 0
0 -1.98938e-05 0
0 -7.3162e-06 0
0 -5.63509e-06 0
0 -1.76631e-05 0
0 -1.42638e-05 0
0 -2.22707e-05 0
0 -1.77204e-05 0
0 -2.11264e-05 0
0 -1.75686e-05 0
0 -1.76047e-05 0
0 -6.69346e-06 0
0 -2.20467e-05 0
0 -1.42479e-05 0
0 -1.76144e-05 0
0 -6.84615e-06 0
0 -6.12404e-06 0
0 -6.50125e-06 0
0 -1.41879e-05 0
0 -1.37476e-05 0
0 -2.11168e-05 0
0 -1.79377e-05 0
0 -1.37282e-05 0
0 -1.41198e-05 0
0 -2.15061e-05 0
0 -6.84475e-06 0
0 -1.74349e-05 0
0 -1.75758e-05 0
0 -6.41828e-06 0
0 -7.20025e-06 0
0 -2.30432e-05 0
0 -6.96894e-06 0
0 -6.44499e-06 0
0 -6.14414e-06 0
0 -2.14766e-05 0
0 -6.00855e-06 0
0 -5.92427e-06 0
0 -5.81567e-06 0
0 -5.02303e-06 0
0 -5.01945e-06 0
0 -4.85271e-06 0
0 -4.87573e-06 0
0 -4.8684e-06 0
0 -5.22951e-06 0
0 -4.84801e-06 0
0 -4.88396e-06 0
0 -4.77612e-06 0
0 -4.81304e-06 0
0 -4.85251e-06 0
0 -4.8555e-06 0
0 -4.82575e-06 0
0 -4.80313e-06 0
0 -4.86923e-06 0
0 -4.85781e-06 0
0 -4.73027e-06 0
0 -1.08748e-05 0
0 -5.22863e-06 0
0 -5.34413e-06 0
0 -5.26459e-06 0
0 -5.05624e-06 0
0 -4.92238e-06 0
0 -5.43253e-06 0
0 -5.43253e-06 0
0 -5.43253e-06 0
0 -5.43253e-06 0
0 -5.43253e-06 0
0 -5.43253e-06 0
0 -5.40321e-06 0
0 -5.40321e-06 0
0 -7.3113e-06 0
0 -6.98147e-06 0
0 -4.8949e-06 0

