# vtk DataFile Version 4.2
vtk output
ASCII
DATASET UNSTRUCTURED_GRID

POINTS 343 double
0.00112256 0.00419491 8.94928e-08
0.00217119 0.00498251 0.00217536
0 0.00419538 0.00112517
0.00193014 0.00195445 0.00194216
0.00516958 0.00240677 0.00503222
0.00517227 0.00382994 0.00639751
0.00762281 0.00477521 0.00499889
0.00622481 0.00485026 0.00369178
0.00683633 0.00328843 0.00691391
0.0049912 0.00499244 0.0049998
0.00418038 0.00111807 0.00999909
0.00528102 0.00208016 0.00790403
0.0041903 -7.49561e-06 0.00831715
0.00201243 0.00200247 0.00803325
0.00428618 0.00253281 0.00999913
0.00695671 0.00644659 0.00694684
0.00641392 0.00618225 0.00518302
0.00226065 0.00218461 0.00514611
0 0.00143586 0.00417514
0.00159464 0.00346614 0.00403704
0.00683739 0.00319377 0.00316149
0.0077456 0.0022128 0.00506388
0 0.00270918 0.00154168
0.00415843 0.00142845 2.35096e-07
0.00500798 0.00218773 0.00219803
0.00396265 0.00352664 0.00160316
0.00134541 -6.04037e-07 0.00406002
0.0041835 -7.84445e-06 0.00168831
0.0026264 0.00695162 1.68263e-07
0.00193838 0.00805273 0.00194491
0.00408785 0.006248 0.00164515
0.00800313 0.00798563 0.00799708
0.00796497 0.00481529 0.00802211
0.00838852 0.00607923 0.00594777
0.00999937 0.00882493 0.00419167
0.00757718 0.00763535 0.00496356
0.0085673 0.00997956 0.00416632
0.00797691 0.00797075 0.00201587
0.00353612 0.00303649 0.00695951
0.00443749 0.00366183 0.00832397
0.00389246 0.00160047 0.00596901
0.0050057 0.00766815 0.00767661
0.00198973 0.00800787 0.00798964
0.00282765 0.00999725 0.00712715
0.00391682 0.00839942 0.0059578
0 0.00695361 0.00262895
0.00164657 0.00623925 0.00408789
0 0.0040177 0.00850214
0.00231513 0.00498569 0.0076615
0.00143335 0.00417447 0.00999995
0.00717509 0.00711777 0.00999765
0.00611833 0.00597052 0.00841721
0.00205199 0.00794141 0.00474184
0.00304387 0.00694286 0.0064677
0.001587 0.00607834 0.00592601
0.0099893 0.00578311 0.00831428
0 0.00718191 0.00711644
0.00158465 0.00577343 5.56932e-08
0 0.00577432 0.00158701
0.00999414 0.00715683 0.00711373
0.00286753 0.00334927 0.00999967
0.00997039 0.00140843 0.00417379
0.00803652 0.00194253 0.00197885
0.00838955 0.00350168 0.00399803
0.00372591 0.00164796 0.00412833
0.00150945 0.00999967 0.00581502
0.0028097 -3.61378e-06 0.0071277
0.00610993 0.00417124 0.00837569
0.00999319 0.00724887 0.00419399
0.00852876 -2.25293e-05 0.00416719
0.0033418 0.00286963 1.71887e-07
0.00270034 0.00153881 0.0099997
0.0028185 -3.99176e-06 0.00283205
0.00479805 0.00519396 0.00755412
0.00315829 0.00314624 0.00316737
0 0.00849157 0.00581511
0.00486495 0.00366941 0.00378617
0.0015371 0.00270865 4.40524e-08
0.00579996 0.00831574 0.00999818
0.00598513 0.00998908 0.00850471
0.00421432 0.00999397 0.00831721
0.00401804 0.00849822 0.00999887
0.00999867 0.00846625 0.00581271
0.00314759 0.0068335 0.00315088
0 0.00748929 0.00137438
0.00137346 0.00748898 2.37935e-08
0 0.00287343 0.00335182
0 0.00580816 0.00831736
0 0.00429792 0.00253898
0.00253364 0.00429589 1.80065e-07
0.00143396 0.00581917 0.00999995
0.00517559 0.00646845 0.00639996
0.0036035 0.00650932 0.00823376
0.00693265 0.00261276 0.00999796
0.00799976 0.00193941 0.00803377
0.00694218 -1.67658e-05 0.00308174
0.00600095 0.00165227 0.00361265
0.00997558 0.00284687 0.00335069
0 0.00140616 0.00256446
0.00637358 0.00821647 0.00642011
0.00579679 0.00142313 4.09531e-07
0.00602223 0.00354081 0.00160319
0.00315732 0.00999644 0.0058251
0.00856265 0.00997975 0.00583142
0.00255408 0.00140299 1.94186e-07
0.00595022 -1.33351e-05 0.00149454
0.00628055 0.0082765 0.00361682
0.00852422 -2.23507e-05 0.00583198
0.0061869 0.00166037 0.00636456
0.00140238 0.00256406 0.01
0.00711132 0.0071675 -2.09333e-07
0.00516534 0.00768214 0.00216877
0.0059365 0.00608364 0.00160176
0 0.00686719 0.00578184
0.00996957 0.00137853 0.00256365
0.00177234 0.00360988 0.00640785
0.00999734 0.00846126 0.00262231
0.00840359 0.00617018 0.0041317
0.00598314 0.00998842 0.00149352
0.00694228 -1.64815e-05 0.0069254
0.00997114 0.00140825 0.00581771
0.00837964 0.00355363 0.00605941
0.00150195 -7.69299e-07 0.00581519
0 0.0013659 0.00748679
0.00136378 -6.46153e-07 0.00752891
0.00999229 0.00684204 0.00577954
0.00581534 0.00848103 -9.25471e-08
0 0.0075208 0.00859127
0.00136523 0.00748643 0.00999988
0.00423117 0.00820022 0.00362814
0.00859622 0.00997962 0.00750984
0.0100001 0.00860505 0.00752341
0.00575547 0.00157548 0.00999842
0.00724588 0.00417329 0.00999778
0 0.0057735 0.00666667
0.0013704 0.00999961 0.00752892
0 0.00863025 0.00752641
0.00855471 -2.29528e-05 0.00250704
0.00999127 0.00692814 0.00262765
0.00845055 0.00632266 0.00216219
0.00850057 0.00580471 0.00999718
0.00746609 0.00135668 0.00999763
0.00855767 -2.25684e-05 0.00750999
0.00997158 0.00133871 0.00748413
0 0.00143551 0.00581971
0.0059526 -1.28775e-05 0.00850462
0.00419341 -7.88851e-06 0.00339998
0.00792022 0.00468998 0.00203401
0.00998077 0.00427198 0.00253793
0.00423183 0.00999374 0.00666605
0.00283673 0.0099973 0.00283191
0.00130706 -6.58646e-07 0.00241833
0 0.00727418 0.00419576
0.00998835 0.00574838 0.00666411
0.00697769 0.00998517 0.00308086
0.00750884 0.00862119 0.00999749
0 0.00574334 0.00336387
0 0.0043297 0.00416652
0.00686239 0.00577131 0.00999795
0.00997772 0.00299601 0.00691279
0.00420631 -7.6854e-06 0.00666638
0.00248061 0.00999766 0.00861133
0.0074596 0.00134759 2.15466e-07
0.00577072 0.00665749 0.00999823
0.00999618 0.00749582 0.00858799
0.00860593 0.00753412 0.00999706
0.00689507 0.00300723 3.01267e-07
0.00335896 0.00574041 2.70637e-07
0.00752596 0.00861385 -4.20778e-07
0.00751934 0.00998293 0.00138667
0.00577696 0.00685745 -1.56531e-08
0.0069682 0.00635729 0.00303285
0.00748267 -1.91188e-05 0.00138775
0.00288057 0.00499712 0.00999958
0.00432571 0.00582859 0.00999891
0.00432163 0.00416146 0.00999898
0.00752205 0.00998352 0.00861383
0.0024651 -3.05117e-06 0.00861152
0.00998671 0.00571791 0.00336251
0 0.00302218 0.00691532
0.00998228 0.00399218 0.00849907
0.00848279 0.00399719 -8.39657e-08
0.00997421 0.00268227 0.00154106
0 0.00244495 0.00857025
0.00244614 0.00856817 0.00999948
0.00748554 -1.86221e-05 0.00861371
0.00846645 0.00260343 0.00999719
0.00883595 0.00417287 0.00999703
0.00567564 0.00998971 0.00583247
0.00518505 0.00757577 0.00503188
0.00564747 0.00998965 0.00421462
0.00697768 0.00998551 0.00692506
0.00302085 0.00691331 0.00999934
0.00415723 0.0043246 3.64467e-07
0.00282155 -4.12502e-06 0.00440475
0.00313782 -4.6053e-06 0.00582551
0.00997982 0.00416917 0.00112451
0.00363803 0.00833317 0.00158828
0.0099816 0.00430392 0.00416501
0.00665684 0.00576074 1.21818e-07
0.00859342 0.00997922 0.00250595
0 0.00848692 0.00262374
0.00135216 0.00999965 0.00405987
0 0.00885053 0.00419359
0.00419494 0.00884429 9.58261e-08
0.00420873 0.00999355 0.00168762
0.00498994 0.00478438 0.00237884
0.00720426 0.00450642 1.55143e-07
0.00561645 -1.22388e-05 0.00421541
0.00564469 -1.21737e-05 0.00583291
0.00131365 0.00999967 0.00241806
0.00854475 0.00242337 1.43377e-08
0.00998369 0.0044963 0.00721688
0.00712037 0.00998488 0.00499905
0.0057303 0.00335411 0.00999846
0.00244573 -3.23145e-06 0.00135675
0.00997618 0.00241844 0.00856725
0.00239182 0.00478978 0.00499991
0.00581988 0.0043198 3.56323e-07
0.00830528 0.00578897 -2.89339e-07
0.00548485 0.00999046 0.00721945
0.0099823 0.00430451 0.00583118
0.00540736 0.00999025 0.00277517
0.00708452 -1.707e-05 0.00499975
0.00283924 0.00999731 0.00440432
0 0.00452174 0.00721958
0.00452033 0.0072145 0.00999876
0.00545446 -1.13815e-05 0.00721943
0.00359805 0.00507046 0.0035965
0.00425645 0.00999368 0.00500781
0.00423025 -7.86268e-06 0.00500845
0.00366632 0.00521344 0.00617441
0 0.005744 0.00499998
0 0.00433013 0.00583333
0.00499259 0.0057371 3.15441e-07
0.00498037 0.00633231 0.00355361
0.00537688 -1.15692e-05 0.00277607
0.00998746 0.00571876 0.00499803
0.00368795 0.00640437 0.00484379
0.0057361 0.00499117 0.00999839
0.00998615 0.00574868 0.00158611
0 0.00666667 0
0.0085855 0.0075007 -6.03491e-07
0.00331641 -6.10221e-06 8.2831e-07
0 0.01 0.00666667
0.00500655 0.00999156 0.00999875
0 0.00288419 0.00499914
0.00999291 0.00746369 0.00137338
0.00998918 0.00664098 -8.70139e-07
0 0.005 0.01
0.00498332 0.00287574 3.25704e-07
0 0.005 0
0.00996442 -2.83709e-05 0.00333242
0.0100051 0.00997403 0.00666384
0.00419318 0.00726897 1.70692e-07
0.00997627 0.00285785 0.0049974
0.00497602 -1.09085e-05 8.35947e-07
0 0 0.00666667
0.0037905 0.00361266 0.00522621
0.00497891 -1.03873e-05 0.00999836
0.00996589 -2.81006e-05 0.00666434
0 0 0.005
0.00878404 0.00997829 0.00121911
0.00999798 0.00875393 0.00121894
0.00996512 -2.81886e-05 0.0049984
0.00998262 0.00497389 -6.34632e-07
0.00121559 0.00121926 -3.49529e-09
0 0.00122008 0.00122008
0 0.00333333 0.01
0 0.00666667 0.01
0.00877889 0.0087586 -8.18391e-07
0.0100037 0.00997368 0.00333149
0.00421943 0.00999364 0.00339937
0.00999342 0.00664179 0.00999654
0 0.00333333 0
0 0.00122008 0.00877992
0.00121501 -8.21103e-07 0.00877969
0.0012162 0.00121952 0.0100001
0.00878713 0.00997885 0.00877722
0.00122006 0.00877945 0.00999988
0 0.00877992 0.00877992
0.0100013 0.00875464 0.00877661
0.00667144 0.0099858 -5.98088e-07
0.00996824 0.00119213 0.00121969
0.00122103 0.00999946 0.00878008
0.00878308 0.00875937 0.00999702
0.00998683 0.0049748 0.00999657
0 0 0.00333333
0.00663664 -1.62221e-05 7.63767e-07
0.00874516 -2.39226e-05 0.00122029
0.001206 -8.59404e-07 0.00121208
0 0.00877992 0.00122008
0.00121995 0.0087794 1.01254e-07
0.0012123 0.00999951 0.00121142
0.00997152 0.00119272 0.00877672
0.00875358 0.00119736 0.00999697
0.0066404 -1.57169e-05 0.00999752
0.00874936 0.00119674 9.28434e-08
0.00874843 -2.34037e-05 0.00877701
0.00997614 0.00330663 -4.44029e-07
0.00333819 0.00999552 0.00999957
0.00246176 0.00999785 0.00135633
0.00667475 0.00998649 0.00999812
0.00998028 0.00330754 0.00999657
0 0.01 0.005
0.00262397 0.00848461 1.72224e-07
0.0100043 0.00997387 0.00499774
0 0.01 0.00333333
0 0.00166667 0
0.00996372 -2.86227e-05 0.00166633
0 0.00166667 0.01
0 0.00833333 0
0.00999584 0.00830735 -1.0964e-06
0.00996664 -2.81626e-05 0.00833016
0.010003 0.00997347 0.00166529
0.0100058 0.00997407 0.00833014
0.001669 0.00999851 0.00999989
0 0.01 0.00833333
0.00833746 0.00997978 -8.83953e-07
0.00829913 -2.25205e-05 3.89171e-07
0.00830331 -2.1978e-05 0.00999691
0.00834129 0.00998036 0.0099973
0 0 0.00833333
0.0100001 0.00830819 0.00999649
0.00165792 -2.12567e-06 2.61543e-07
0 0 0.00166667
0.00333737 0.00999569 4.22666e-08
0.00997378 0.00163947 0.0099965
0.00996957 0.00163882 -3.06532e-07
0.00165912 -1.74101e-06 0.00999998
0.00166856 0.0099988 6.72325e-08
0 0.01 0.00166667
0.0100067 0.00997409 0.00999657
0 0 0.01
0.0100024 0.00997329 -1.3749e-06
0.00996733 -2.82713e-05 0.00999622
0 0.01 0.01
0.00996306 -2.88313e-05 -5.07311e-08
0 0.01 0
0 0 0
0.00500463 0.00999107 -2.15945e-07
0.00331852 -5.4948e-06 0.00999906
0 0.00833333 0.01

CELLS 343 686
1 0
1 1
1 2
1 3
1 4
1 5
1 6
1 7
1 8
1 9
1 10
1 11
1 12
1 13
1 14
1 15
1 16
1 17
1 18
1 19
1 20
1 21
1 22
1 23
1 24
1 25
1 26
1 27
1 28
1 29
1 30
1 31
1 32
1 33
1 34
1 35
1 36
1 37
1 38
1 39
1 40
1 41
1 42
1 43
1 44
1 45
1 46
1 47
1 48
1 49
1 50
1 51
1 52
1 53
1 54
1 55
1 56
1 57
1 58
1 59
1 60
1 61
1 62
1 63
1 64
1 65
1 66
1 67
1 68
1 69
1 70
1 71
1 72
1 73
1 74
1 75
1 76
1 77
1 78
1 79
1 80
1 81
1 82
1 83
1 84
1 85
1 86
1 87
1 88
1 89
1 90
1 91
1 92
1 93
1 94
1 95
1 96
1 97
1 98
1 99
1 100
1 101
1 102
1 103
1 104
1 105
1 106
1 107
1 108
1 109
1 110
1 111
1 112
1 113
1 114
1 115
1 116
1 117
1 118
1 119
1 120
1 121
1 122
1 123
1 124
1 125
1 126
1 127
1 128
1 129
1 130
1 131
1 132
1 133
1 134
1 135
1 136
1 137
1 138
1 139
1 140
1 141
1 142
1 143
1 144
1 145
1 146
1 147
1 148
1 149
1 150
1 151
1 152
1 153
1 154
1 155
1 156
1 157
1 158
1 159
1 160
1 161
1 162
1 163
1 164
1 165
1 166
1 167
1 168
1 169
1 170
1 171
1 172
1 173
1 174
1 175
1 176
1 177
1 178
1 179
1 180
1 181
1 182
1 183
1 184
1 185
1 186
1 187
1 188
1 189
1 190
1 191
1 192
1 193
1 194
1 195
1 196
1 197
1 198
1 199
1 200
1 201
1 202
1 203
1 204
1 205
1 206
1 207
1 208
1 209
1 210
1 211
1 212
1 213
1 214
1 215
1 216
1 217
1 218
1 219
1 220
1 221
1 222
1 223
1 224
1 225
1 226
1 227
1 228
1 229
1 230
1 231
1 232
1 233
1 234
1 235
1 236
1 237
1 238
1 239
1 240
1 241
1 242
1 243
1 244
1 245
1 246
1 247
1 248
1 249
1 250
1 251
1 252
1 253
1 254
1 255
1 256
1 257
1 258
1 259
1 260
1 261
1 262
1 263
1 264
1 265
1 266
1 267
1 268
1 269
1 270
1 271
1 272
1 273
1 274
1 275
1 276
1 277
1 278
1 279
1 280
1 281
1 282
1 283
1 284
1 285
1 286
1 287
1 288
1 289
1 290
1 291
1 292
1 293
1 294
1 295
1 296
1 297
1 298
1 299
1 300
1 301
1 302
1 303
1 304
1 305
1 306
1 307
1 308
1 309
1 310
1 311
1 312
1 313
1 314
1 315
1 316
1 317
1 318
1 319
1 320
1 321
1 322
1 323
1 324
1 325
1 326
1 327
1 328
1 329
1 330
1 331
1 332
1 333
1 334
1 335
1 336
1 337
1 338
1 339
1 340
1 341
1 342

CELL_TYPES 343
1
1
1
1
1
1
1
1
1
1
1
1
1
1
1
1
1
1
1
1
1
1
1
1
1
1
1
1
1
1
1
1
1
1
1
1
1
1
1
1
1
1
1
1
1
1
1
1
1
1
1
1
1
1
1
1
1
1
1
1
1
1
1
1
1
1
1
1
1
1
1
1
1
1
1
1
1
1
1
1
1
1
1
1
1
1
1
1
1
1
1
1
1
1
1
1
1
1
1
1
1
1
1
1
1
1
1
1
1
1
1
1
1
1
1
1
1
1
1
1
1
1
1
1
1
1
1
1
1
1
1
1
1
1
1
1
1
1
1
1
1
1
1
1
1
1
1
1
1
1
1
1
1
1
1
1
1
1
1
1
1
1
1
1
1
1
1
1
1
1
1
1
1
1
1
1
1
1
1
1
1
1
1
1
1
1
1
1
1
1
1
1
1
1
1
1
1
1
1
1
1
1
1
1
1
1
1
1
1
1
1
1
1
1
1
1
1
1
1
1
1
1
1
1
1
1
1
1
1
1
1
1
1
1
1
1
1
1
1
1
1
1
1
1
1
1
1
1
1
1
1
1
1
1
1
1
1
1
1
1
1
1
1
1
1
1
1
1
1
1
1
1
1
1
1
1
1
1
1
1
1
1
1
1
1
1
1
1
1
1
1
1
1
1
1
1
1
1
1
1
1
1
1
1
1
1
1
1
1
1
1
1
1
1
1
1
1
1
1
1
1
1
1
1
1
1
1
1
1
1
1
1
1
1
1
1
1
1
1
1
1
1
1

POINT_DATA 343
FIELD FieldData 3

ExternalForceID_(#) 1 343 int
0
1
2
3
4
5
6
7
8
9
10
11
12
13
14
15
16
17
18
19
20
21
22
23
24
25
26
27
28
29
30
31
32
33
34
35
36
37
38
39
40
41
42
43
44
45
46
47
48
49
50
51
52
53
54
55
56
57
58
59
60
61
62
63
64
65
66
67
68
69
70
71
72
73
74
75
76
77
78
79
80
81
82
83
84
85
86
87
88
89
90
91
92
93
94
95
96
97
98
99
100
101
102
103
104
105
106
107
108
109
110
111
112
113
114
115
116
117
118
119
120
121
122
123
124
125
126
127
128
129
130
131
132
133
134
135
136
137
138
139
140
141
142
143
144
145
146
147
148
149
150
151
152
153
154
155
156
157
158
159
160
161
162
163
164
165
166
167
168
169
170
171
172
173
174
175
176
177
178
179
180
181
182
183
184
185
186
187
188
189
190
191
192
193
194
195
196
197
198
199
200
201
202
203
204
205
206
207
208
209
210
211
212
213
214
215
216
217
218
219
220
221
222
223
224
225
226
227
228
229
230
231
232
233
234
235
236
237
238
239
240
241
242
243
244
245
246
247
248
249
250
251
252
253
254
255
256
257
258
259
260
261
262
263
264
265
266
267
268
269
270
271
272
273
274
275
276
277
278
279
280
281
282
283
284
285
286
287
288
289
290
291
292
293
294
295
296
297
298
299
300
301
302
303
304
305
306
307
308
309
310
311
312
313
314
315
316
317
318
319
320
321
322
323
324
325
326
327
328
329
330
331
332
333
334
335
336
337
338
339
340
341
342

ExternalForceType_(0/1/2/3/4) 1 343 int
0
0
0
0
0
0
0
0
0
0
0
0
0
0
0
0
0
0
0
0
0
0
0
0
0
0
0
0
0
0
0
0
0
0
0
0
0
0
0
0
0
0
0
0
0
0
0
0
0
0
0
0
0
0
0
0
0
0
0
0
0
0
0
0
0
0
0
0
0
0
0
0
0
0
0
0
0
0
0
0
0
0
0
0
0
0
0
0
0
0
0
0
0
0
0
0
0
0
0
0
0
0
0
0
0
0
0
0
0
0
0
0
0
0
0
0
0
0
0
0
0
0
0
0
0
0
0
0
0
0
0
0
0
0
0
0
0
0
0
0
0
0
0
0
0
0
0
0
0
0
0
0
0
0
0
0
0
0
0
0
0
0
0
0
0
0
0
0
0
0
0
0
0
0
0
0
0
0
0
0
0
0
0
0
0
0
0
0
0
0
0
0
0
0
0
0
0
0
0
0
0
0
0
0
0
0
0
0
0
0
0
0
0
0
0
0
0
0
0
0
0
0
0
0
0
0
0
0
0
0
0
0
0
0
0
0
0
0
0
0
0
0
0
0
0
0
0
0
0
0
0
0
0
0
0
0
0
0
0
0
0
0
0
0
0
0
0
0
0
0
0
0
0
0
0
0
0
0
0
0
0
0
0
0
0
0
0
0
0
0
0
0
0
0
0
0
0
0
0
0
0
0
0
0
0
0
0
0
0
0
0
0
0
0
0
0
0
0
0
0
0
0
0
0
0
0
0
0
0
0
0
0
0
0
0
0
0
0
0
0
0
0
0

ExternalForce_(N) 3 343 double
0 -3.09568e-05 0
0 -0.000138619 0
0 -2.16714e-05 0
0 -0.000168226 0
0 -8.26002e-05 0
0 -8.9203e-05 0
0 -9.74165e-05 0
0 -7.37906e-05 0
0 -6.68156e-05 0
0 -5.47617e-05 0
0 -3.04981e-05 0
0 -0.000105531 0
0 -4.77758e-05 0
0 -0.000161821 0
0 -2.96713e-05 0
0 -7.9067e-05 0
0 -6.57564e-05 0
0 -0.000106704 0
0 -4.11017e-05 0
0 -8.006e-05 0
0 -6.02474e-05 0
0 -0.000115662 0
0 -2.18875e-05 0
0 -4.17098e-05 0
0 -0.000107827 0
0 -7.27379e-05 0
0 -4.13856e-05 0
0 -3.85027e-05 0
0 -3.029e-05 0
0 -0.000128774 0
0 -7.57947e-05 0
0 -0.000162261 0
0 -0.000116775 0
0 -7.15802e-05 0
0 -3.74431e-05 0
0 -0.000108892 0
0 -3.74072e-05 0
0 -0.000136493 0
0 -6.25303e-05 0
0 -7.85756e-05 0
0 -7.52544e-05 0
0 -0.000116589 0
0 -0.000160874 0
0 -2.73339e-05 0
0 -8.7662e-05 0
0 -2.53184e-05 0
0 -7.42972e-05 0
0 -4.15199e-05 0
0 -0.000128792 0
0 -3.72945e-05 0
0 -2.72189e-05 0
0 -7.03157e-05 0
0 -0.000119003 0
0 -5.02041e-05 0
0 -8.04153e-05 0
0 -4.4939e-05 0
0 -2.74192e-05 0
0 -3.19929e-05 0
0 -4.04607e-05 0
0 -2.07889e-05 0
0 -3.28809e-05 0
0 -3.54797e-05 0
0 -0.000153858 0
0 -7.19739e-05 0
0 -8.09026e-05 0
0 -4.90862e-05 0
0 -2.77255e-05 0
0 -7.06591e-05 0
0 -3.20606e-05 0
0 -4.10794e-05 0
0 -1.98932e-05 0
0 -2.37551e-05 0
0 -3.0591e-05 0
0 -5.86107e-05 0
0 -5.75946e-05 0
0 -4.01595e-05 0
0 -5.35099e-05 0
0 -2.24477e-05 0
0 -4.41213e-05 0
0 -4.29866e-05 0
0 -4.42325e-05 0
0 -4.30889e-05 0
0 -4.19155e-05 0
0 -5.21923e-05 0
0 -1.5029e-05 0
0 -2.34331e-05 0
0 -1.9903e-05 0
0 -4.30461e-05 0
0 -3.11931e-05 0
0 -3.08326e-05 0
0 -4.52797e-05 0
0 -5.7648e-05 0
0 -8.02544e-05 0
0 -2.43623e-05 0
0 -0.000150893 0
0 -3.43039e-05 0
0 -7.21258e-05 0
0 -1.97489e-05 0
0 -2.00202e-05 0
0 -7.83017e-05 0
0 -4.32908e-05 0
0 -7.00326e-05 0
0 -1.17841e-05 0
0 -4.93779e-05 0
0 -1.58193e-05 0
0 -4.04762e-05 0
0 -8.57147e-05 0
0 -4.2953e-05 0
0 -7.82027e-05 0
0 -2.09499e-05 0
0 -3.31713e-05 0
0 -9.30599e-05 0
0 -7.26197e-05 0
0 -1.76801e-05 0
0 -2.06228e-05 0
0 -7.8371e-05 0
0 -1.84411e-05 0
0 -7.30662e-05 0
0 -4.11806e-05 0
0 -2.3265e-05 0
0 -4.23503e-05 0
0 -5.94919e-05 0
0 -4.22718e-05 0
0 -2.12723e-05 0
0 -1.86252e-05 0
0 -1.77849e-05 0
0 -3.82356e-05 0
0 -2.39658e-05 0
0 -1.62481e-05 0
0 -7.86148e-05 0
0 -1.61387e-05 0
0 -2.34763e-05 0
0 -2.95637e-05 0
0 -2.93742e-05 0
0 -1.33947e-05 0
0 -1.83735e-05 0
0 -2.05639e-05 0
0 -1.91062e-05 0
0 -1.84053e-05 0
0 -6.25793e-05 0
0 -4.49914e-05 0
0 -1.98914e-05 0
0 -1.58922e-05 0
0 -2.367e-05 0
0 -3.81266e-05 0
0 -4.36518e-05 0
0 -2.25472e-05 0
0 -0.000115119 0
0 -3.05886e-05 0
0 -1.32828e-05 0
0 -3.38507e-05 0
0 -1.78391e-05 0
0 -2.88237e-05 0
0 -1.34771e-05 0
0 -2.36876e-05 0
0 -2.06453e-05 0
0 -2.58912e-05 0
0 -2.10097e-05 0
0 -1.7602e-05 0
0 -3.13896e-05 0
0 -1.34386e-05 0
0 -2.38863e-05 0
0 -2.04203e-05 0
0 -1.33426e-05 0
0 -2.13076e-05 0
0 -1.86316e-05 0
0 -3.10974e-05 0
0 -2.56228e-05 0
0 -2.33161e-05 0
0 -1.57181e-05 0
0 -1.87061e-05 0
0 -5.38771e-05 0
0 -1.84308e-05 0
0 -3.08341e-05 0
0 -2.91652e-05 0
0 -1.16203e-05 0
0 -1.85667e-05 0
0 -2.00287e-05 0
0 -2.68375e-05 0
0 -2.37799e-05 0
0 -3.16945e-05 0
0 -3.13676e-05 0
0 -3.15313e-05 0
0 -1.90796e-05 0
0 -1.58134e-05 0
0 -1.83326e-05 0
0 -3.16308e-05 0
0 -2.07128e-05 0
0 -2.91276e-05 0
0 -6.03597e-05 0
0 -2.26581e-05 0
0 -2.35174e-05 0
0 -2.33506e-05 0
0 -2.59482e-05 0
0 -1.63393e-05 0
0 -1.78912e-05 0
0 -2.02658e-05 0
0 -5.62379e-05 0
0 -2.04507e-05 0
0 -2.14176e-05 0
0 -2.38895e-05 0
0 -3.05955e-05 0
0 -3.11287e-05 0
0 -2.01544e-05 0
0 -1.92198e-05 0
0 -2.99909e-05 0
0 -6.32085e-05 0
0 -2.04829e-05 0
0 -2.67435e-05 0
0 -2.11611e-05 0
0 -1.83262e-05 0
0 -1.96474e-05 0
0 -2.0699e-05 0
0 -2.83503e-05 0
0 -2.27807e-05 0
0 -2.35234e-05 0
0 -1.93874e-05 0
0 -6.29086e-05 0
0 -2.12117e-05 0
0 -3.22943e-05 0
0 -2.06229e-05 0
0 -2.61501e-05 0
0 -1.90721e-05 0
0 -2.86319e-05 0
0 -2.53212e-05 0
0 -2.07681e-05 0
0 -2.05553e-05 0
0 -1.88077e-05 0
0 -6.92631e-05 0
0 -2.20924e-05 0
0 -2.02457e-05 0
0 -6.16224e-05 0
0 -2.08117e-05 0
0 -2.85397e-05 0
0 -2.08875e-05 0
0 -6.32617e-05 0
0 -1.39008e-05 0
0 -2.0289e-05 0
0 -6.45558e-05 0
0 -2.47785e-05 0
0 -2.35177e-05 0
0 -7.28089e-06 0
0 -2.18143e-05 0
0 -6.93323e-06 0
0 -6.87344e-06 0
0 -8.76768e-06 0
0 -2.48719e-05 0
0 -2.22231e-05 0
0 -1.31068e-05 0
0 -7.69816e-06 0
0 -2.27889e-05 0
0 -5.95166e-06 0
0 -6.55579e-06 0
0 -6.71305e-06 0
0 -2.46468e-05 0
0 -2.27228e-05 0
0 -7.6878e-06 0
0 -6.67903e-06 0
0 -6.10861e-05 0
0 -6.6189e-06 0
0 -6.52665e-06 0
0 -6.87836e-06 0
0 -1.78856e-05 0
0 -1.87072e-05 0
0 -6.73674e-06 0
0 -6.91401e-06 0
0 -1.82903e-05 0
0 -2.2423e-05 0
0 -6.67521e-06 0
0 -7.02401e-06 0
0 -1.78908e-05 0
0 -5.89658e-06 0
0 -1.98938e-05 0
0 -7.3162e-06 0
0 -5.63509e-06 0
0 -1.76631e-05 0
0 -1.42638e-05 0
0 -2.22707e-05 0
0 -1.77204e-05 0
0 -2.11264e-05 0
0 -1.75686e-05 0
0 -1.76047e-05 0
0 -6.69346e-06 0
0 -2.20467e-05 0
0 -1.42479e-05 0
0 -1.76144e-05 0
0 -6.84615e-06 0
0 -6.12404e-06 0
0 -6.50125e-06 0
0 -1.41879e-05 0
0 -1.37476e-05 0
0 -2.11168e-05 0
0 -1.79377e-05 0
0 -1.37282e-05 0
0 -1.41198e-05 0
0 -2.15061e-05 0
0 -6.84475e-06 0
0 -1.74349e-05 0
0 -1.75758e-05 0
0 -6.41828e-06 0
0 -7.20025e-06 0
0 -2.30432e-05 0
0 -6.96894e-06 0
0 -6.44499e-06 0
0 -6.14414e-06 0
0 -2.14766e-05 0
0 -6.00855e-06 0
0 -5.92427e-06 0
0 -5.81567e-06 0
0 -5.02303e-06 0
0 -5.01945e-06 0
0 -4.85271e-06 0
0 -4.87573e-06 0
0 -4.8684e-06 0
0 -5.22951e-06 0
0 -4.84801e-06 0
0 -4.88396e-06 0
0 -4.77612e-06 0
0 -4.81304e-06 0
0 -4.85251e-06 0
0 -4.8555e-06 0
0 -4.82575e-06 0
0 -4.80313e-06 0
0 -4.86923e-06 0
0 -4.85781e-06 0
0 -4.73027e-06 0
0 -1.08748e-05 0
0 -5.22863e-06 0
0 -5.34413e-06 0
0 -5.26459e-06 0
0 -5.05624e-06 0
0 -4.92238e-06 0
0 -5.43253e-06 0
0 -5.43253e-06 0
0 -5.43253e-06 0
0 -5.43253e-06 0
0 -5.43253e-06 0
0 -5.43253e-06 0
0 -5.40321e-06 0
0 -5.40321e-06 0
0 -7.3113e-06 0
0 -6.98147e-06 0
0 -4.8949e-06 0

