# vtk DataFile Version 4.2
vtk output
ASCII
DATASET UNSTRUCTURED_GRID

POINTS 343 double
0.00112259 0.0041949 8.94102e-08
0.00217126 0.00498246 0.00217537
0 0.00419538 0.00112517
0.00193008 0.00195441 0.00194217
0.00516927 0.00240641 0.00503232
0.00517212 0.00382962 0.0063976
0.00762284 0.00477451 0.00499906
0.0062249 0.00484979 0.0036919
0.00683605 0.00328784 0.00691405
0.00499125 0.00499215 0.00499988
0.0041799 0.00111779 0.00999913
0.00528058 0.00207977 0.00790411
0.00418972 -7.7888e-06 0.00831719
0.00201229 0.00200244 0.00803327
0.00428585 0.00253256 0.00999918
0.00695696 0.00644603 0.00694697
0.00641417 0.00618177 0.00518314
0.00226055 0.00218456 0.00514613
0 0.00143586 0.00417514
0.00159462 0.00346613 0.00403704
0.00683721 0.00319316 0.00316164
0.00774518 0.00221202 0.00506406
0 0.00270918 0.00154168
0.00415823 0.00142816 2.84864e-07
0.00500774 0.00218736 0.00219814
0.00396265 0.00352645 0.00160323
0.00134529 -6.17256e-07 0.00406003
0.00418308 -8.14203e-06 0.00168839
0.00262664 0.00695155 1.84993e-07
0.00193856 0.0080527 0.00194493
0.00408811 0.00624784 0.00164522
0.00800364 0.00798489 0.00799725
0.00796491 0.00481453 0.00802228
0.00838876 0.0060784 0.00594796
0.0100002 0.00882381 0.00419192
0.00757773 0.00763467 0.00496373
0.00856832 0.0099787 0.00416651
0.00797763 0.00797 0.00201606
0.00353596 0.00303634 0.00695954
0.0044373 0.0036616 0.00832403
0.00389212 0.00160025 0.00596907
0.00500601 0.00766785 0.00767668
0.00198983 0.00800783 0.00798964
0.00282801 0.00999716 0.00712716
0.00391718 0.00839924 0.00595784
0 0.00695361 0.00262895
0.00164664 0.00623922 0.0040879
0 0.0040177 0.00850214
0.00231514 0.00498565 0.00766151
0.00143332 0.00417445 0.00999995
0.00717535 0.00711718 0.00999776
0.00611844 0.0059701 0.00841731
0.00205213 0.00794138 0.00474185
0.003044 0.00694278 0.00646772
0.00158703 0.00607832 0.00592602
0.0099894 0.00578199 0.00831451
0 0.00718191 0.00711644
0.00158474 0.00577341 5.64397e-08
0 0.00577432 0.00158701
0.00999454 0.00715571 0.00711397
0.00286739 0.00334917 0.00999969
0.00996983 0.00140722 0.00417406
0.00803615 0.00194168 0.00197906
0.00838938 0.00350081 0.00399824
0.00372562 0.00164775 0.00412838
0.00150961 0.00999967 0.00581502
0.0028093 -3.74568e-06 0.00712773
0.00610975 0.00417079 0.00837579
0.00999371 0.00724775 0.00419424
0.00852795 -2.34954e-05 0.00416741
0.00334179 0.00286949 2.00164e-07
0.00270006 0.00153871 0.00999972
0.00281817 -4.13522e-06 0.00283207
0.00479804 0.00519371 0.00755419
0.00315823 0.00314613 0.00316741
0 0.00849157 0.00581511
0.00486487 0.00366911 0.00378626
0.0015371 0.00270864 4.3848e-08
0.00580034 0.00831533 0.00999825
0.00598582 0.00998864 0.00850481
0.00421478 0.00999374 0.00831726
0.00401831 0.00849801 0.00999889
0.00999936 0.00846514 0.00581296
0.00314778 0.00683341 0.00315092
0 0.00748929 0.00137438
0.00137359 0.00748898 2.09993e-08
0 0.00287343 0.00335182
0 0.00580816 0.00831736
0 0.00429792 0.00253898
0.00253375 0.00429582 1.9568e-07
0.00143397 0.00581915 0.00999995
0.0051758 0.00646815 0.00640004
0.00360359 0.0065092 0.00823379
0.00693216 0.00261213 0.00999808
0.00799918 0.00193858 0.00803394
0.00694149 -1.74601e-05 0.00308191
0.00600054 0.00165175 0.00361278
0.00997531 0.00284569 0.00335096
0 0.00140616 0.00256446
0.0063741 0.00821599 0.00642022
0.00579647 0.00142262 5.1721e-07
0.00602217 0.00354033 0.00160332
0.00315772 0.00999631 0.00582514
0.00856361 0.00997889 0.0058316
0.00255397 0.00140287 2.12233e-07
0.00594963 -1.38735e-05 0.00149469
0.00628117 0.00827602 0.00361694
0.00852335 -2.33099e-05 0.00583219
0.0061864 0.00165984 0.00636468
0.0014023 0.00256405 0.01
0.00711194 0.00716689 -6.66118e-08
0.00516585 0.00768181 0.00216886
0.00593684 0.00608323 0.00160188
0 0.00686719 0.00578184
0.00996905 0.00137731 0.00256392
0.0017723 0.00360985 0.00640787
0.00999814 0.00846014 0.00262256
0.00840391 0.00616934 0.00413191
0.00598407 0.00998795 0.00149363
0.00694145 -1.7171e-05 0.00692554
0.00997052 0.00140704 0.00581797
0.00837941 0.00355276 0.00605961
0.0015018 -7.90578e-07 0.0058152
0 0.0013659 0.00748679
0.00136365 -6.66611e-07 0.00752891
0.00999267 0.00684092 0.00577978
0.00581609 0.0084806 6.08201e-09
0 0.0075208 0.00859127
0.00136527 0.00748642 0.00999988
0.0042316 0.0082 0.0036282
0.00859712 0.00997876 0.00751002
0.0100007 0.00860394 0.00752364
0.00575488 0.001575 0.0099985
0.00724564 0.00417266 0.00999791
0 0.0057735 0.00666667
0.00137053 0.00999961 0.00752892
0 0.00863025 0.00752641
0.00855395 -2.39362e-05 0.00250728
0.00999179 0.00692701 0.00262791
0.00845097 0.00632181 0.0021624
0.00850062 0.00580387 0.00999734
0.00746538 0.00135592 0.00999777
0.00855674 -2.35409e-05 0.00751018
0.00997088 0.00133751 0.00748438
0 0.00143551 0.00581971
0.00595179 -1.34057e-05 0.00850472
0.00419291 -8.19413e-06 0.00340005
0.00792035 0.0046892 0.00203421
0.00998079 0.00427082 0.00253819
0.00423238 0.00999351 0.00666609
0.00283717 0.0099972 0.00283193
0.00130696 -6.7384e-07 0.00241834
0 0.00727418 0.00419576
0.0099885 0.00574725 0.00666435
0.00697864 0.00998456 0.00308101
0.00750936 0.00862051 0.00999761
0 0.00574334 0.00336387
0 0.0043297 0.00416652
0.00686242 0.00577076 0.00999806
0.00997734 0.00299484 0.00691304
0.00420573 -7.98639e-06 0.00666644
0.00248089 0.00999758 0.00861135
0.00745922 0.00134682 3.82895e-07
0.00577087 0.00665711 0.0099983
0.00999659 0.00749471 0.00858821
0.0086063 0.00753327 0.00999722
0.00689497 0.0030066 4.5149e-07
0.00335919 0.00574031 3.06399e-07
0.00752684 0.00861316 -2.63811e-07
0.00752038 0.00998223 0.00138683
0.00577747 0.00685705 8.3408e-08
0.00696858 0.00635671 0.00303301
0.00748201 -1.99198e-05 0.00138795
0.00288053 0.00499704 0.00999959
0.0043257 0.0058284 0.00999895
0.00432146 0.00416126 0.00999903
0.00752285 0.00998283 0.00861397
0.00246474 -3.16738e-06 0.00861154
0.00998697 0.00571677 0.00336277
0 0.00302218 0.00691532
0.00998203 0.00399103 0.00849931
0.00848285 0.00399629 1.16204e-07
0.00997397 0.00268107 0.00154133
0 0.00244495 0.00857025
0.00244629 0.00856809 0.00999948
0.00748463 -1.94135e-05 0.00861384
0.0084659 0.00260254 0.00999736
0.00883569 0.00417195 0.0099972
0.00567636 0.0099893 0.00583256
0.00518544 0.00757545 0.00503196
0.00564825 0.00998924 0.00421472
0.0069785 0.00998491 0.00692518
0.00302092 0.00691324 0.00999936
0.00415736 0.0043244 4.26539e-07
0.0028212 -4.27661e-06 0.00440479
0.0031374 -4.77567e-06 0.00582556
0.00997987 0.004168 0.00112477
0.00363846 0.008333 0.00158833
0.00998157 0.00430276 0.00416527
0.0066572 0.00576019 2.55781e-07
0.0085945 0.00997835 0.00250615
0 0.00848692 0.00262374
0.0013523 0.00999964 0.00405987
0 0.00885053 0.00419359
0.00419554 0.00884404 1.53601e-07
0.00420942 0.0099933 0.00168768
0.00499005 0.0047841 0.00237893
0.00720441 0.00450576 3.12572e-07
0.00561582 -1.27337e-05 0.00421554
0.005644 -1.26673e-05 0.00583301
0.00131381 0.00999966 0.00241806
0.00854452 0.00242243 2.19074e-07
0.00998359 0.00449516 0.00721713
0.00712127 0.00998425 0.00499919
0.00572997 0.00335369 0.00999854
0.00244547 -3.34394e-06 0.00135678
0.00997563 0.00241726 0.00856749
0.00239185 0.00478972 0.00499994
0.00581999 0.00431937 4.72642e-07
0.00830567 0.00578813 -1.02229e-07
0.00548551 0.00999008 0.00721954
0.00998221 0.00430336 0.00583143
0.00540817 0.00998987 0.00277525
0.00708375 -1.77816e-05 0.00499992
0.00283964 0.00999721 0.00440434
0 0.00452174 0.00721958
0.00452049 0.00721427 0.0099988
0.00545375 -1.18416e-05 0.00721951
0.00359813 0.00507032 0.00359655
0.00425706 0.00999344 0.00500786
0.0042297 -8.17072e-06 0.00500853
0.00366635 0.0052133 0.00617445
0 0.005744 0.00499998
0 0.00433013 0.00583333
0.0049929 0.00573682 4.0207e-07
0.00498064 0.00633203 0.0035537
0.0053763 -1.20323e-05 0.00277619
0.00998766 0.00571762 0.00499829
0.00368811 0.00640424 0.00484383
0.00573601 0.0049908 0.00999846
0.00998647 0.00574753 0.00158637
0 0.00666667 0
0.00858621 0.00749983 -4.13095e-07
0.00331611 -6.33065e-06 8.83593e-07
0 0.01 0.00666667
0.00500705 0.00999123 0.0099988
0 0.00288419 0.00499914
0.00999356 0.00746256 0.00137363
0.00998973 0.00663984 -6.27498e-07
0 0.005 0.01
0.00498323 0.0028754 4.07137e-07
0 0.005 0
0.00996362 -2.96081e-05 0.0033327
0.010006 0.00997292 0.00666408
0.00419361 0.00726877 2.29241e-07
0.00997594 0.00285668 0.00499766
0.00497558 -1.13356e-05 9.32931e-07
0 0 0.00666667
0.00379041 0.0036125 0.00522626
0.00497819 -1.08041e-05 0.00999841
0.00996497 -2.93282e-05 0.00666459
0 0 0.005
0.00878517 0.00997738 0.00121932
0.00999888 0.0087528 0.00121919
0.00996426 -2.94179e-05 0.00499867
0.00998286 0.00497272 -3.87732e-07
0.00121555 0.00121923 -6.22917e-09
0 0.00122008 0.00122008
0 0.00333333 0.01
0 0.00666667 0.01
0.00877983 0.00875769 -6.25097e-07
0.0100047 0.00997256 0.00333174
0.00422008 0.00999339 0.00339942
0.00999362 0.00664068 0.00999675
0 0.00333333 0
0 0.00122008 0.00877992
0.00121488 -8.49823e-07 0.00877968
0.0012161 0.0012195 0.0100001
0.00878798 0.00997795 0.00877741
0.00122012 0.00877944 0.00999988
0 0.00877992 0.00877992
0.0100019 0.00875353 0.00877683
0.00667248 0.00998523 -4.80207e-07
0.00996773 0.0011909 0.00121996
0.00122114 0.00999944 0.0087801
0.00878367 0.00875848 0.00999719
0.00998671 0.00497367 0.00999679
0 0 0.00333333
0.00663606 -1.68872e-05 9.19315e-07
0.00874444 -2.49496e-05 0.00122053
0.00120592 -8.84285e-07 0.00121211
0 0.00877992 0.00122008
0.0012201 0.00877939 1.0342e-07
0.00121246 0.00999949 0.00121142
0.00997074 0.00119151 0.00877696
0.00875278 0.00119637 0.00999714
0.0066395 -1.63699e-05 0.00999761
0.0087489 0.00119573 3.08907e-07
0.00874745 -2.44165e-05 0.00877719
0.00997606 0.00330544 -1.9173e-07
0.00333853 0.00999536 0.0099996
0.00246217 0.00999777 0.00135635
0.00667544 0.00998594 0.00999823
0.00997985 0.00330638 0.00999678
0 0.01 0.005
0.00262433 0.00848454 1.929e-07
0.0100053 0.00997275 0.00499798
0 0.01 0.00333333
0 0.00166667 0
0.00996297 -2.98694e-05 0.00166661
0 0.00166667 0.01
0 0.00833333 0
0.00999669 0.00830621 -8.62183e-07
0.00996566 -2.93961e-05 0.00833039
0.0100041 0.00997234 0.00166554
0.0100067 0.00997296 0.00833036
0.00166917 0.00999846 0.0099999
0 0.01 0.00833333
0.00833861 0.00997894 -7.05376e-07
0.00829847 -2.34755e-05 5.95396e-07
0.0083023 -2.2922e-05 0.00999706
0.00834207 0.00997953 0.00999745
0 0 0.00833333
0.0100006 0.00830708 0.0099967
0.00165777 -2.19827e-06 2.73896e-07
0 0 0.00166667
0.00333798 0.00999553 7.57642e-08
0.00997304 0.00163826 0.00999672
0.00996918 0.00163759 -5.05729e-08
0.00165889 -1.80497e-06 0.00999999
0.00166884 0.00999876 7.63183e-08
0 0.01 0.00166667
0.0100075 0.00997298 0.00999678
0 0 0.01
0.0100036 0.00997216 -1.14699e-06
0.00996628 -2.95082e-05 0.00999643
0 0.01 0.01
0.00996236 -3.00861e-05 2.14045e-07
0 0.01 0
0 0 0
0.00500548 0.00999072 -1.44052e-07
0.00331801 -5.70267e-06 0.00999907
0 0.00833333 0.01

CELLS 343 686
1 0
1 1
1 2
1 3
1 4
1 5
1 6
1 7
1 8
1 9
1 10
1 11
1 12
1 13
1 14
1 15
1 16
1 17
1 18
1 19
1 20
1 21
1 22
1 23
1 24
1 25
1 26
1 27
1 28
1 29
1 30
1 31
1 32
1 33
1 34
1 35
1 36
1 37
1 38
1 39
1 40
1 41
1 42
1 43
1 44
1 45
1 46
1 47
1 48
1 49
1 50
1 51
1 52
1 53
1 54
1 55
1 56
1 57
1 58
1 59
1 60
1 61
1 62
1 63
1 64
1 65
1 66
1 67
1 68
1 69
1 70
1 71
1 72
1 73
1 74
1 75
1 76
1 77
1 78
1 79
1 80
1 81
1 82
1 83
1 84
1 85
1 86
1 87
1 88
1 89
1 90
1 91
1 92
1 93
1 94
1 95
1 96
1 97
1 98
1 99
1 100
1 101
1 102
1 103
1 104
1 105
1 106
1 107
1 108
1 109
1 110
1 111
1 112
1 113
1 114
1 115
1 116
1 117
1 118
1 119
1 120
1 121
1 122
1 123
1 124
1 125
1 126
1 127
1 128
1 129
1 130
1 131
1 132
1 133
1 134
1 135
1 136
1 137
1 138
1 139
1 140
1 141
1 142
1 143
1 144
1 145
1 146
1 147
1 148
1 149
1 150
1 151
1 152
1 153
1 154
1 155
1 156
1 157
1 158
1 159
1 160
1 161
1 162
1 163
1 164
1 165
1 166
1 167
1 168
1 169
1 170
1 171
1 172
1 173
1 174
1 175
1 176
1 177
1 178
1 179
1 180
1 181
1 182
1 183
1 184
1 185
1 186
1 187
1 188
1 189
1 190
1 191
1 192
1 193
1 194
1 195
1 196
1 197
1 198
1 199
1 200
1 201
1 202
1 203
1 204
1 205
1 206
1 207
1 208
1 209
1 210
1 211
1 212
1 213
1 214
1 215
1 216
1 217
1 218
1 219
1 220
1 221
1 222
1 223
1 224
1 225
1 226
1 227
1 228
1 229
1 230
1 231
1 232
1 233
1 234
1 235
1 236
1 237
1 238
1 239
1 240
1 241
1 242
1 243
1 244
1 245
1 246
1 247
1 248
1 249
1 250
1 251
1 252
1 253
1 254
1 255
1 256
1 257
1 258
1 259
1 260
1 261
1 262
1 263
1 264
1 265
1 266
1 267
1 268
1 269
1 270
1 271
1 272
1 273
1 274
1 275
1 276
1 277
1 278
1 279
1 280
1 281
1 282
1 283
1 284
1 285
1 286
1 287
1 288
1 289
1 290
1 291
1 292
1 293
1 294
1 295
1 296
1 297
1 298
1 299
1 300
1 301
1 302
1 303
1 304
1 305
1 306
1 307
1 308
1 309
1 310
1 311
1 312
1 313
1 314
1 315
1 316
1 317
1 318
1 319
1 320
1 321
1 322
1 323
1 324
1 325
1 326
1 327
1 328
1 329
1 330
1 331
1 332
1 333
1 334
1 335
1 336
1 337
1 338
1 339
1 340
1 341
1 342

CELL_TYPES 343
1
1
1
1
1
1
1
1
1
1
1
1
1
1
1
1
1
1
1
1
1
1
1
1
1
1
1
1
1
1
1
1
1
1
1
1
1
1
1
1
1
1
1
1
1
1
1
1
1
1
1
1
1
1
1
1
1
1
1
1
1
1
1
1
1
1
1
1
1
1
1
1
1
1
1
1
1
1
1
1
1
1
1
1
1
1
1
1
1
1
1
1
1
1
1
1
1
1
1
1
1
1
1
1
1
1
1
1
1
1
1
1
1
1
1
1
1
1
1
1
1
1
1
1
1
1
1
1
1
1
1
1
1
1
1
1
1
1
1
1
1
1
1
1
1
1
1
1
1
1
1
1
1
1
1
1
1
1
1
1
1
1
1
1
1
1
1
1
1
1
1
1
1
1
1
1
1
1
1
1
1
1
1
1
1
1
1
1
1
1
1
1
1
1
1
1
1
1
1
1
1
1
1
1
1
1
1
1
1
1
1
1
1
1
1
1
1
1
1
1
1
1
1
1
1
1
1
1
1
1
1
1
1
1
1
1
1
1
1
1
1
1
1
1
1
1
1
1
1
1
1
1
1
1
1
1
1
1
1
1
1
1
1
1
1
1
1
1
1
1
1
1
1
1
1
1
1
1
1
1
1
1
1
1
1
1
1
1
1
1
1
1
1
1
1
1
1
1
1
1
1
1
1
1
1
1
1
1
1
1
1
1
1
1
1
1
1
1
1
1
1
1
1
1
1
1
1
1
1
1
1
1
1
1
1
1
1
1
1
1
1
1
1

POINT_DATA 343
FIELD FieldData 3

ExternalForceID_(#) 1 343 int
0
1
2
3
4
5
6
7
8
9
10
11
12
13
14
15
16
17
18
19
20
21
22
23
24
25
26
27
28
29
30
31
32
33
34
35
36
37
38
39
40
41
42
43
44
45
46
47
48
49
50
51
52
53
54
55
56
57
58
59
60
61
62
63
64
65
66
67
68
69
70
71
72
73
74
75
76
77
78
79
80
81
82
83
84
85
86
87
88
89
90
91
92
93
94
95
96
97
98
99
100
101
102
103
104
105
106
107
108
109
110
111
112
113
114
115
116
117
118
119
120
121
122
123
124
125
126
127
128
129
130
131
132
133
134
135
136
137
138
139
140
141
142
143
144
145
146
147
148
149
150
151
152
153
154
155
156
157
158
159
160
161
162
163
164
165
166
167
168
169
170
171
172
173
174
175
176
177
178
179
180
181
182
183
184
185
186
187
188
189
190
191
192
193
194
195
196
197
198
199
200
201
202
203
204
205
206
207
208
209
210
211
212
213
214
215
216
217
218
219
220
221
222
223
224
225
226
227
228
229
230
231
232
233
234
235
236
237
238
239
240
241
242
243
244
245
246
247
248
249
250
251
252
253
254
255
256
257
258
259
260
261
262
263
264
265
266
267
268
269
270
271
272
273
274
275
276
277
278
279
280
281
282
283
284
285
286
287
288
289
290
291
292
293
294
295
296
297
298
299
300
301
302
303
304
305
306
307
308
309
310
311
312
313
314
315
316
317
318
319
320
321
322
323
324
325
326
327
328
329
330
331
332
333
334
335
336
337
338
339
340
341
342

ExternalForceType_(0/1/2/3/4) 1 343 int
0
0
0
0
0
0
0
0
0
0
0
0
0
0
0
0
0
0
0
0
0
0
0
0
0
0
0
0
0
0
0
0
0
0
0
0
0
0
0
0
0
0
0
0
0
0
0
0
0
0
0
0
0
0
0
0
0
0
0
0
0
0
0
0
0
0
0
0
0
0
0
0
0
0
0
0
0
0
0
0
0
0
0
0
0
0
0
0
0
0
0
0
0
0
0
0
0
0
0
0
0
0
0
0
0
0
0
0
0
0
0
0
0
0
0
0
0
0
0
0
0
0
0
0
0
0
0
0
0
0
0
0
0
0
0
0
0
0
0
0
0
0
0
0
0
0
0
0
0
0
0
0
0
0
0
0
0
0
0
0
0
0
0
0
0
0
0
0
0
0
0
0
0
0
0
0
0
0
0
0
0
0
0
0
0
0
0
0
0
0
0
0
0
0
0
0
0
0
0
0
0
0
0
0
0
0
0
0
0
0
0
0
0
0
0
0
0
0
0
0
0
0
0
0
0
0
0
0
0
0
0
0
0
0
0
0
0
0
0
0
0
0
0
0
0
0
0
0
0
0
0
0
0
0
0
0
0
0
0
0
0
0
0
0
0
0
0
0
0
0
0
0
0
0
0
0
0
0
0
0
0
0
0
0
0
0
0
0
0
0
0
0
0
0
0
0
0
0
0
0
0
0
0
0
0
0
0
0
0
0
0
0
0
0
0
0
0
0
0
0
0
0
0
0
0
0
0
0
0
0
0
0
0
0
0
0
0
0
0
0
0
0
0

ExternalForce_(N) 3 343 double
0 -3.09568e-05 0
0 -0.000138619 0
0 -2.16714e-05 0
0 -0.000168226 0
0 -8.26002e-05 0
0 -8.9203e-05 0
0 -9.74165e-05 0
0 -7.37906e-05 0
0 -6.68156e-05 0
0 -5.47617e-05 0
0 -3.04981e-05 0
0 -0.000105531 0
0 -4.77758e-05 0
0 -0.000161821 0
0 -2.96713e-05 0
0 -7.9067e-05 0
0 -6.57564e-05 0
0 -0.000106704 0
0 -4.11017e-05 0
0 -8.006e-05 0
0 -6.02474e-05 0
0 -0.000115662 0
0 -2.18875e-05 0
0 -4.17098e-05 0
0 -0.000107827 0
0 -7.27379e-05 0
0 -4.13856e-05 0
0 -3.85027e-05 0
0 -3.029e-05 0
0 -0.000128774 0
0 -7.57947e-05 0
0 -0.000162261 0
0 -0.000116775 0
0 -7.15802e-05 0
0 -3.74431e-05 0
0 -0.000108892 0
0 -3.74072e-05 0
0 -0.000136493 0
0 -6.25303e-05 0
0 -7.85756e-05 0
0 -7.52544e-05 0
0 -0.000116589 0
0 -0.000160874 0
0 -2.73339e-05 0
0 -8.7662e-05 0
0 -2.53184e-05 0
0 -7.42972e-05 0
0 -4.15199e-05 0
0 -0.000128792 0
0 -3.72945e-05 0
0 -2.72189e-05 0
0 -7.03157e-05 0
0 -0.000119003 0
0 -5.02041e-05 0
0 -8.04153e-05 0
0 -4.4939e-05 0
0 -2.74192e-05 0
0 -3.19929e-05 0
0 -4.04607e-05 0
0 -2.07889e-05 0
0 -3.28809e-05 0
0 -3.54797e-05 0
0 -0.000153858 0
0 -7.19739e-05 0
0 -8.09026e-05 0
0 -4.90862e-05 0
0 -2.77255e-05 0
0 -7.06591e-05 0
0 -3.20606e-05 0
0 -4.10794e-05 0
0 -1.98932e-05 0
0 -2.37551e-05 0
0 -3.0591e-05 0
0 -5.86107e-05 0
0 -5.75946e-05 0
0 -4.01595e-05 0
0 -5.35099e-05 0
0 -2.24477e-05 0
0 -4.41213e-05 0
0 -4.29866e-05 0
0 -4.42325e-05 0
0 -4.30889e-05 0
0 -4.19155e-05 0
0 -5.21923e-05 0
0 -1.5029e-05 0
0 -2.34331e-05 0
0 -1.9903e-05 0
0 -4.30461e-05 0
0 -3.11931e-05 0
0 -3.08326e-05 0
0 -4.52797e-05 0
0 -5.7648e-05 0
0 -8.02544e-05 0
0 -2.43623e-05 0
0 -0.000150893 0
0 -3.43039e-05 0
0 -7.21258e-05 0
0 -1.97489e-05 0
0 -2.00202e-05 0
0 -7.83017e-05 0
0 -4.32908e-05 0
0 -7.00326e-05 0
0 -1.17841e-05 0
0 -4.93779e-05 0
0 -1.58193e-05 0
0 -4.04762e-05 0
0 -8.57147e-05 0
0 -4.2953e-05 0
0 -7.82027e-05 0
0 -2.09499e-05 0
0 -3.31713e-05 0
0 -9.30599e-05 0
0 -7.26197e-05 0
0 -1.76801e-05 0
0 -2.06228e-05 0
0 -7.8371e-05 0
0 -1.84411e-05 0
0 -7.30662e-05 0
0 -4.11806e-05 0
0 -2.3265e-05 0
0 -4.23503e-05 0
0 -5.94919e-05 0
0 -4.22718e-05 0
0 -2.12723e-05 0
0 -1.86252e-05 0
0 -1.77849e-05 0
0 -3.82356e-05 0
0 -2.39658e-05 0
0 -1.62481e-05 0
0 -7.86148e-05 0
0 -1.61387e-05 0
0 -2.34763e-05 0
0 -2.95637e-05 0
0 -2.93742e-05 0
0 -1.33947e-05 0
0 -1.83735e-05 0
0 -2.05639e-05 0
0 -1.91062e-05 0
0 -1.84053e-05 0
0 -6.25793e-05 0
0 -4.49914e-05 0
0 -1.98914e-05 0
0 -1.58922e-05 0
0 -2.367e-05 0
0 -3.81266e-05 0
0 -4.36518e-05 0
0 -2.25472e-05 0
0 -0.000115119 0
0 -3.05886e-05 0
0 -1.32828e-05 0
0 -3.38507e-05 0
0 -1.78391e-05 0
0 -2.88237e-05 0
0 -1.34771e-05 0
0 -2.36876e-05 0
0 -2.06453e-05 0
0 -2.58912e-05 0
0 -2.10097e-05 0
0 -1.7602e-05 0
0 -3.13896e-05 0
0 -1.34386e-05 0
0 -2.38863e-05 0
0 -2.04203e-05 0
0 -1.33426e-05 0
0 -2.13076e-05 0
0 -1.86316e-05 0
0 -3.10974e-05 0
0 -2.56228e-05 0
0 -2.33161e-05 0
0 -1.57181e-05 0
0 -1.87061e-05 0
0 -5.38771e-05 0
0 -1.84308e-05 0
0 -3.08341e-05 0
0 -2.91652e-05 0
0 -1.16203e-05 0
0 -1.85667e-05 0
0 -2.00287e-05 0
0 -2.68375e-05 0
0 -2.37799e-05 0
0 -3.16945e-05 0
0 -3.13676e-05 0
0 -3.15313e-05 0
0 -1.90796e-05 0
0 -1.58134e-05 0
0 -1.83326e-05 0
0 -3.16308e-05 0
0 -2.07128e-05 0
0 -2.91276e-05 0
0 -6.03597e-05 0
0 -2.26581e-05 0
0 -2.35174e-05 0
0 -2.33506e-05 0
0 -2.59482e-05 0
0 -1.63393e-05 0
0 -1.78912e-05 0
0 -2.02658e-05 0
0 -5.62379e-05 0
0 -2.04507e-05 0
0 -2.14176e-05 0
0 -2.38895e-05 0
0 -3.05955e-05 0
0 -3.11287e-05 0
0 -2.01544e-05 0
0 -1.92198e-05 0
0 -2.99909e-05 0
0 -6.32085e-05 0
0 -2.04829e-05 0
0 -2.67435e-05 0
0 -2.11611e-05 0
0 -1.83262e-05 0
0 -1.96474e-05 0
0 -2.0699e-05 0
0 -2.83503e-05 0
0 -2.27807e-05 0
0 -2.35234e-05 0
0 -1.93874e-05 0
0 -6.29086e-05 0
0 -2.12117e-05 0
0 -3.22943e-05 0
0 -2.06229e-05 0
0 -2.61501e-05 0
0 -1.90721e-05 0
0 -2.86319e-05 0
0 -2.53212e-05 0
0 -2.07681e-05 0
0 -2.05553e-05 0
0 -1.88077e-05 0
0 -6.92631e-05 0
0 -2.20924e-05 0
0 -2.02457e-05 0
0 -6.16224e-05 0
0 -2.08117e-05 0
0 -2.85397e-05 0
0 -2.08875e-05 0
0 -6.32617e-05 0
0 -1.39008e-05 0
0 -2.0289e-05 0
0 -6.45558e-05 0
0 -2.47785e-05 0
0 -2.35177e-05 0
0 -7.28089e-06 0
0 -2.18143e-05 0
0 -6.93323e-06 0
0 -6.87344e-06 0
0 -8.76768e-06 0
0 -2.48719e-05 0
0 -2.22231e-05 0
0 -1.31068e-05 0
0 -7.69816e-06 0
0 -2.27889e-05 0
0 -5.95166e-06 0
0 -6.55579e-06 0
0 -6.71305e-06 0
0 -2.46468e-05 0
0 -2.27228e-05 0
0 -7.6878e-06 0
0 -6.67903e-06 0
0 -6.10861e-05 0
0 -6.6189e-06 0
0 -6.52665e-06 0
0 -6.87836e-06 0
0 -1.78856e-05 0
0 -1.87072e-05 0
0 -6.73674e-06 0
0 -6.91401e-06 0
0 -1.82903e-05 0
0 -2.2423e-05 0
0 -6.67521e-06 0
0 -7.02401e-06 0
0 -1.78908e-05 0
0 -5.89658e-06 0
0 -1.98938e-05 0
0 -7.3162e-06 0
0 -5.63509e-06 0
0 -1.76631e-05 0
0 -1.42638e-05 0
0 -2.22707e-05 0
0 -1.77204e-05 0
0 -2.11264e-05 0
0 -1.75686e-05 0
0 -1.76047e-05 0
0 -6.69346e-06 0
0 -2.20467e-05 0
0 -1.42479e-05 0
0 -1.76144e-05 0
0 -6.84615e-06 0
0 -6.12404e-06 0
0 -6.50125e-06 0
0 -1.41879e-05 0
0 -1.37476e-05 0
0 -2.11168e-05 0
0 -1.79377e-05 0
0 -1.37282e-05 0
0 -1.41198e-05 0
0 -2.15061e-05 0
0 -6.84475e-06 0
0 -1.74349e-05 0
0 -1.75758e-05 0
0 -6.41828e-06 0
0 -7.20025e-06 0
0 -2.30432e-05 0
0 -6.96894e-06 0
0 -6.44499e-06 0
0 -6.14414e-06 0
0 -2.14766e-05 0
0 -6.00855e-06 0
0 -5.92427e-06 0
0 -5.81567e-06 0
0 -5.02303e-06 0
0 -5.01945e-06 0
0 -4.85271e-06 0
0 -4.87573e-06 0
0 -4.8684e-06 0
0 -5.22951e-06 0
0 -4.84801e-06 0
0 -4.88396e-06 0
0 -4.77612e-06 0
0 -4.81304e-06 0
0 -4.85251e-06 0
0 -4.8555e-06 0
0 -4.82575e-06 0
0 -4.80313e-06 0
0 -4.86923e-06 0
0 -4.85781e-06 0
0 -4.73027e-06 0
0 -1.08748e-05 0
0 -5.22863e-06 0
0 -5.34413e-06 0
0 -5.26459e-06 0
0 -5.05624e-06 0
0 -4.92238e-06 0
0 -5.43253e-06 0
0 -5.43253e-06 0
0 -5.43253e-06 0
0 -5.43253e-06 0
0 -5.43253e-06 0
0 -5.43253e-06 0
0 -5.40321e-06 0
0 -5.40321e-06 0
0 -7.3113e-06 0
0 -6.98147e-06 0
0 -4.8949e-06 0

