# vtk DataFile Version 4.2
vtk output
ASCII
DATASET UNSTRUCTURED_GRID

POINTS 343 double
0.00112201 0.00419471 1.45756e-07
0.00217042 0.00498191 0.00217555
0 0.00419538 0.00112517
0.0019278 0.00195384 0.00194235
0.00516131 0.00240132 0.00503327
0.00516641 0.00382536 0.00639842
0.00761842 0.00476488 0.00500114
0.0062219 0.0048435 0.00369341
0.00682761 0.00327961 0.00691558
0.0049884 0.00498844 0.00500071
0.00417071 0.00111363 0.00999976
0.00527095 0.0020742 0.00790495
0.00417889 -1.22731e-05 0.00831765
0.00200938 0.00200196 0.00803348
0.00427864 0.00252911 0.00999989
0.00695597 0.00643853 0.00694844
0.00641344 0.00617538 0.00518448
0.00225761 0.00218385 0.00514627
0 0.00143586 0.00417514
0.0015932 0.0034659 0.00403705
0.00683032 0.00318469 0.00316363
0.00773425 0.00220088 0.00506629
0 0.00270918 0.00154168
0.00415231 0.00142385 1.33122e-06
0.00500075 0.0021821 0.00219969
0.00395971 0.00352389 0.00160426
0.0013426 -8.93866e-07 0.00406012
0.00417403 -1.27032e-05 0.00168963
0.00262764 0.00695069 6.29548e-07
0.00193914 0.00805235 0.00194512
0.00408853 0.00624576 0.00164624
0.00800603 0.00797462 0.00799917
0.00795898 0.00480417 0.00802422
0.00838719 0.00606703 0.0059503
0.010007 0.0088078 0.0041953
0.00758086 0.0076254 0.00496565
0.00857812 0.00996613 0.00416898
0.00798332 0.00795955 0.00201875
0.00353139 0.00303437 0.00695991
0.00443183 0.00365862 0.00832473
0.0038847 0.00159698 0.00596955
0.00500698 0.00766393 0.00767745
0.00198968 0.0080074 0.00798968
0.00283077 0.0099957 0.00712721
0.00391916 0.00839671 0.00595819
0 0.00695361 0.00262895
0.00164619 0.00623887 0.004088
0 0.0040177 0.00850214
0.00231376 0.00498507 0.00766164
0.00143212 0.00417417 0.00999998
0.00717483 0.00710901 0.00999922
0.00611602 0.00596439 0.00841848
0.00205221 0.00794102 0.00474195
0.00304355 0.00694179 0.00646791
0.00158639 0.00607805 0.00592609
0.00998566 0.00576626 0.00831744
0 0.00718191 0.00711644
0.00158467 0.00577305 1.65009e-07
0 0.00577432 0.00158701
0.00999516 0.00714001 0.00711705
0.0028638 0.00334791 0.0100001
0.00995643 0.00138969 0.00417772
0.00802596 0.00192953 0.00198204
0.00838206 0.00348864 0.00400097
0.00371887 0.00164467 0.00412892
0.00151053 0.00999953 0.00581502
0.00280182 -5.85276e-06 0.00712802
0.00610338 0.00416479 0.00837696
0.00999621 0.00723194 0.00419768
0.00851117 -3.76957e-05 0.00417033
0.00333935 0.00286754 8.58766e-07
0.00269478 0.00153711 0.0100001
0.00281122 -6.40528e-06 0.00283239
0.00479463 0.00519046 0.00755492
0.00315496 0.0031447 0.00316775
0 0.00849157 0.00581511
0.00486017 0.00366521 0.00378724
0.00153588 0.00270844 1.16847e-07
0.005802 0.0083097 0.00999918
0.00599155 0.00998226 0.00850598
0.00421839 0.00999039 0.00831782
0.00401934 0.00849508 0.00999928
0.0100042 0.00844931 0.00581611
0.00314773 0.00683227 0.00315129
0 0.00748929 0.00137438
0.00137403 0.00748891 6.15555e-08
0 0.00287343 0.00335182
0 0.00580816 0.00831736
0 0.00429792 0.00253898
0.00253322 0.0042949 5.93148e-07
0.00143313 0.00581897 0.01
0.0051751 0.00646423 0.00640082
0.00360232 0.0065078 0.00823414
0.00692092 0.0026033 0.00999964
0.0079858 0.00192676 0.00803589
0.00692708 -2.7766e-05 0.0030842
0.00599072 0.00164438 0.00361444
0.00996626 0.00282887 0.00335477
0 0.00140616 0.00256446
0.00637705 0.00820929 0.00642135
0.00578795 0.00141521 2.49873e-06
0.00601716 0.00353376 0.00160532
0.00316085 0.00999434 0.00582543
0.00857241 0.00996639 0.00583388
0.00255055 0.0014011 6.47369e-07
0.00593722 -2.19284e-05 0.00149687
0.00628562 0.0082694 0.00361846
0.00850572 -3.73976e-05 0.00583475
0.00617518 0.00165222 0.00636588
0.00140048 0.00256392 0.0100001
0.00711642 0.00715855 2.52558e-06
0.00516917 0.00767744 0.00217016
0.00593767 0.00607785 0.00160374
0 0.00686719 0.00578184
0.00995646 0.00135965 0.00256789
0.00177063 0.00360951 0.00640799
0.0100049 0.00844412 0.00262629
0.00840358 0.00615783 0.0041345
0.00599305 0.00998119 0.00149534
0.00692511 -2.73899e-05 0.00692701
0.00995621 0.00138961 0.0058213
0.00837102 0.00354073 0.00606201
0.0014989 -1.17785e-06 0.00581526
0 0.0013659 0.00748679
0.00136099 -1.02538e-06 0.00752893
0.00999317 0.00682519 0.00578297
0.00582262 0.0084747 1.91505e-06
0 0.0075208 0.00859127
0.00136482 0.00748628 0.00999991
0.00423419 0.00819702 0.00362875
0.00860504 0.00996613 0.00751222
0.0100051 0.00858819 0.00752657
0.0057429 0.00156811 0.0099996
0.00723775 0.004164 0.00999955
0 0.0057735 0.00666667
0.00137119 0.00999944 0.007529
0 0.00863025 0.00752641
0.00853803 -3.84374e-05 0.00251061
0.00999431 0.00691115 0.00263166
0.00845221 0.00631005 0.00216536
0.00849634 0.00579228 0.00999943
0.00745064 0.00134498 0.00999949
0.00853817 -3.7855e-05 0.00751234
0.00995545 0.00132007 0.00748747
0 0.00143551 0.00581971
0.00593657 -2.12758e-05 0.00850574
0.00418274 -1.28553e-05 0.00340093
0.00791733 0.00467851 0.00203696
0.00997606 0.00425448 0.00254201
0.00423691 0.00998997 0.00666647
0.00284075 0.00999573 0.00283216
0.00130451 -9.80882e-07 0.00241846
0 0.00727418 0.00419576
0.00998547 0.00573146 0.00666743
0.00698783 0.00997567 0.00308288
0.00751224 0.00861106 0.00999925
0 0.00574334 0.00336387
0 0.0043297 0.00416652
0.00685868 0.00576341 0.00999957
0.00996668 0.00297828 0.00691614
0.00419479 -1.25901e-05 0.00666695
0.00248305 0.00999633 0.0086115
0.00744911 0.00133554 3.31613e-06
0.00576922 0.00665201 0.0099993
0.00999739 0.00747907 0.00859102
0.00860661 0.00752147 0.00999932
0.00688905 0.00299771 3.10254e-06
0.00335968 0.00573901 1.08558e-06
0.00753493 0.00860349 2.54316e-06
0.00753089 0.00997191 0.00138934
0.00578064 0.0068517 1.99682e-06
0.00696951 0.00634894 0.00303504
0.00746776 -3.18412e-05 0.00139091
0.00287824 0.00499609 0.00999994
0.00432276 0.005826 0.00999958
0.00431644 0.00415861 0.00999973
0.00752961 0.00997279 0.00861572
0.00245826 -5.00521e-06 0.00861174
0.0099857 0.0057008 0.00336642
0 0.00302218 0.00691532
0.00997322 0.00397496 0.00850227
0.00847901 0.00398371 3.62095e-06
0.00996551 0.00266402 0.00154538
0 0.00244495 0.00857025
0.00244661 0.00856697 0.00999962
0.0074669 -3.11353e-05 0.00861542
0.00845306 0.00258996 0.00999945
0.00882684 0.00415905 0.00999945
0.00568244 0.00998328 0.00583339
0.00518712 0.00757117 0.00503276
0.0056551 0.00998319 0.00421575
0.00698567 0.0099762 0.00692648
0.00301987 0.0069124 0.00999963
0.00415612 0.00432182 1.65779e-06
0.00281425 -6.65414e-06 0.00440517
0.00312925 -7.4641e-06 0.00582599
0.00997567 0.00415148 0.00112888
0.00364129 0.00833065 0.00158914
0.00997601 0.00428653 0.00416887
0.00665805 0.0057529 2.72365e-06
0.00860531 0.00996556 0.00250895
0 0.00848692 0.00262374
0.001353 0.00999948 0.00405987
0 0.00885053 0.00419359
0.00420061 0.00884065 1.33276e-06
0.00421565 0.00998963 0.00168858
0.00498789 0.00478042 0.00238019
0.0072021 0.00449672 3.1036e-06
0.00560303 -2.01445e-05 0.00421696
0.00563046 -2.00627e-05 0.00583402
0.0013147 0.00999949 0.00241806
0.0085365 0.00240907 3.78893e-06
0.00997684 0.00447914 0.00722018
0.00712965 0.00997515 0.00500079
0.0057218 0.00334809 0.00999966
0.00243979 -5.13078e-06 0.00135722
0.00996249 0.00240035 0.00857052
0.00239043 0.00478901 0.00500015
0.00581759 0.00431356 2.59368e-06
0.00830672 0.00577656 3.23842e-06
0.00549106 0.00998455 0.00722044
0.00997567 0.00428722 0.00583473
0.00541556 0.00998422 0.00277634
0.00706821 -2.83182e-05 0.00500186
0.00284286 0.00999576 0.00440452
0 0.00452174 0.00721958
0.00451983 0.00721132 0.0099994
0.00544011 -1.87375e-05 0.0072203
0.00359638 0.00506862 0.00359698
0.00426222 0.00998983 0.00500834
0.00421891 -1.28744e-05 0.00500926
0.00366419 0.00521162 0.00617484
0 0.005744 0.00499998
0 0.00433013 0.00583333
0.00499362 0.00573328 2.08363e-06
0.00498072 0.00632846 0.0035547
0.00536442 -1.8986e-05 0.00277779
0.00998546 0.00570176 0.00500166
0.00368746 0.00640259 0.00484418
0.00573115 0.00498594 0.00999955
0.00998632 0.00573144 0.00159034
0 0.00666667 0
0.00859185 0.00748768 2.98165e-06
0.00330938 -9.97227e-06 2.04462e-06
0 0.01 0.00666667
0.0050109 0.0099863 0.00999973
0 0.00288419 0.00499914
0.0099983 0.00744667 0.00137763
0.00999298 0.00662383 3.64441e-06
0 0.005 0.01
0.00497858 0.00287063 1.96023e-06
0 0.005 0
0.00994673 -4.78967e-05 0.0033366
0.0100146 0.00995649 0.00666702
0.00419634 0.00726613 1.4351e-06
0.00996589 0.00284001 0.00500115
0.00496576 -1.79259e-05 2.83135e-06
0 0 0.00666667
0.00378642 0.00361042 0.00522669
0.00496499 -1.70705e-05 0.00999907
0.00994626 -4.7436e-05 0.00666776
0 0 0.005
0.0087968 0.00996401 0.00122251
0.0100073 0.0087366 0.00122314
0.00994643 -4.75672e-05 0.0050022
0.00998152 0.00495636 3.95984e-06
0.0012141 0.0012188 2.26672e-08
0 0.00122008 0.00122008
0 0.00333333 0.01
0 0.00666667 0.01
0.00878888 0.00874474 2.78295e-06
0.0100152 0.00995597 0.00333518
0.00422572 0.00998975 0.00339994
0.00999128 0.00662512 0.00999968
0 0.00333333 0
0 0.00122008 0.00877992
0.00121242 -1.33119e-06 0.0087796
0.00121424 0.00121923 0.0100002
0.0087953 0.00996477 0.00877977
0.00122003 0.0087792 0.00999988
0 0.00877992 0.00877992
0.0100061 0.00873767 0.00877969
0.006683 0.00997681 1.65561e-06
0.00995533 0.00117299 0.00122417
0.0012217 0.00999916 0.0087803
0.00878724 0.00874576 0.00999943
0.00997976 0.00495779 0.00999974
0 0 0.00333333
0.00662349 -2.69251e-05 3.73642e-06
0.00872914 -4.0163e-05 0.00122427
0.0012037 -1.33339e-06 0.00121244
0 0.00877992 0.00122008
0.00122082 0.0087792 1.94082e-07
0.00121351 0.00999923 0.00121139
0.00995416 0.00117394 0.00877988
0.00873598 0.001182 0.00999934
0.00662266 -2.60506e-05 0.00999875
0.00873748 0.00118101 4.06474e-06
0.00872811 -3.93363e-05 0.00877931
0.0099702 0.00328858 4.19834e-06
0.00334099 0.00999275 0.0100002
0.0024656 0.00999659 0.00135663
0.0066811 0.00997775 0.00999981
0.00996834 0.00329009 0.00999972
0 0.01 0.005
0.00262689 0.00848343 6.80785e-07
0.0100148 0.00995623 0.0050012
0 0.01 0.00333333
0 0.00166667 0
0.00994704 -4.83332e-05 0.00167088
0 0.00166667 0.01
0 0.00833333 0
0.0100046 0.00829006 3.26506e-06
0.00994606 -4.75906e-05 0.00833325
0.0100156 0.00995565 0.00166937
0.0100144 0.00995654 0.0083333
0.00167033 0.00999761 0.0100001
0 0.01 0.00833333
0.00835068 0.00996659 2.38903e-06
0.00828422 -3.77521e-05 4.25196e-06
0.00828292 -3.68675e-05 0.00999893
0.0083486 0.00996729 0.00999963
0 0 0.00833333
0.0100029 0.00829129 0.00999959
0.00165424 -3.40917e-06 5.7863e-07
0 0 0.00166667
0.0033436 0.00999314 8.11332e-07
0.009957 0.00162082 0.00999962
0.0099587 0.0016198 4.38052e-06
0.00165483 -2.82693e-06 0.0100002
0.00167115 0.00999814 2.86878e-07
0 0.01 0.00166667
0.0100143 0.0099565 0.00999976
0 0 0.01
0.010016 0.00995544 2.82266e-06
0.00994574 -4.77219e-05 0.00999911
0 0.01 0.01
0.00994731 -4.87405e-05 4.80579e-06
0 0.01 0
0 0 0
0.00501367 0.00998555 1.25106e-06
0.00330906 -8.90385e-06 0.00999934
0 0.00833333 0.01

CELLS 343 686
1 0
1 1
1 2
1 3
1 4
1 5
1 6
1 7
1 8
1 9
1 10
1 11
1 12
1 13
1 14
1 15
1 16
1 17
1 18
1 19
1 20
1 21
1 22
1 23
1 24
1 25
1 26
1 27
1 28
1 29
1 30
1 31
1 32
1 33
1 34
1 35
1 36
1 37
1 38
1 39
1 40
1 41
1 42
1 43
1 44
1 45
1 46
1 47
1 48
1 49
1 50
1 51
1 52
1 53
1 54
1 55
1 56
1 57
1 58
1 59
1 60
1 61
1 62
1 63
1 64
1 65
1 66
1 67
1 68
1 69
1 70
1 71
1 72
1 73
1 74
1 75
1 76
1 77
1 78
1 79
1 80
1 81
1 82
1 83
1 84
1 85
1 86
1 87
1 88
1 89
1 90
1 91
1 92
1 93
1 94
1 95
1 96
1 97
1 98
1 99
1 100
1 101
1 102
1 103
1 104
1 105
1 106
1 107
1 108
1 109
1 110
1 111
1 112
1 113
1 114
1 115
1 116
1 117
1 118
1 119
1 120
1 121
1 122
1 123
1 124
1 125
1 126
1 127
1 128
1 129
1 130
1 131
1 132
1 133
1 134
1 135
1 136
1 137
1 138
1 139
1 140
1 141
1 142
1 143
1 144
1 145
1 146
1 147
1 148
1 149
1 150
1 151
1 152
1 153
1 154
1 155
1 156
1 157
1 158
1 159
1 160
1 161
1 162
1 163
1 164
1 165
1 166
1 167
1 168
1 169
1 170
1 171
1 172
1 173
1 174
1 175
1 176
1 177
1 178
1 179
1 180
1 181
1 182
1 183
1 184
1 185
1 186
1 187
1 188
1 189
1 190
1 191
1 192
1 193
1 194
1 195
1 196
1 197
1 198
1 199
1 200
1 201
1 202
1 203
1 204
1 205
1 206
1 207
1 208
1 209
1 210
1 211
1 212
1 213
1 214
1 215
1 216
1 217
1 218
1 219
1 220
1 221
1 222
1 223
1 224
1 225
1 226
1 227
1 228
1 229
1 230
1 231
1 232
1 233
1 234
1 235
1 236
1 237
1 238
1 239
1 240
1 241
1 242
1 243
1 244
1 245
1 246
1 247
1 248
1 249
1 250
1 251
1 252
1 253
1 254
1 255
1 256
1 257
1 258
1 259
1 260
1 261
1 262
1 263
1 264
1 265
1 266
1 267
1 268
1 269
1 270
1 271
1 272
1 273
1 274
1 275
1 276
1 277
1 278
1 279
1 280
1 281
1 282
1 283
1 284
1 285
1 286
1 287
1 288
1 289
1 290
1 291
1 292
1 293
1 294
1 295
1 296
1 297
1 298
1 299
1 300
1 301
1 302
1 303
1 304
1 305
1 306
1 307
1 308
1 309
1 310
1 311
1 312
1 313
1 314
1 315
1 316
1 317
1 318
1 319
1 320
1 321
1 322
1 323
1 324
1 325
1 326
1 327
1 328
1 329
1 330
1 331
1 332
1 333
1 334
1 335
1 336
1 337
1 338
1 339
1 340
1 341
1 342

CELL_TYPES 343
1
1
1
1
1
1
1
1
1
1
1
1
1
1
1
1
1
1
1
1
1
1
1
1
1
1
1
1
1
1
1
1
1
1
1
1
1
1
1
1
1
1
1
1
1
1
1
1
1
1
1
1
1
1
1
1
1
1
1
1
1
1
1
1
1
1
1
1
1
1
1
1
1
1
1
1
1
1
1
1
1
1
1
1
1
1
1
1
1
1
1
1
1
1
1
1
1
1
1
1
1
1
1
1
1
1
1
1
1
1
1
1
1
1
1
1
1
1
1
1
1
1
1
1
1
1
1
1
1
1
1
1
1
1
1
1
1
1
1
1
1
1
1
1
1
1
1
1
1
1
1
1
1
1
1
1
1
1
1
1
1
1
1
1
1
1
1
1
1
1
1
1
1
1
1
1
1
1
1
1
1
1
1
1
1
1
1
1
1
1
1
1
1
1
1
1
1
1
1
1
1
1
1
1
1
1
1
1
1
1
1
1
1
1
1
1
1
1
1
1
1
1
1
1
1
1
1
1
1
1
1
1
1
1
1
1
1
1
1
1
1
1
1
1
1
1
1
1
1
1
1
1
1
1
1
1
1
1
1
1
1
1
1
1
1
1
1
1
1
1
1
1
1
1
1
1
1
1
1
1
1
1
1
1
1
1
1
1
1
1
1
1
1
1
1
1
1
1
1
1
1
1
1
1
1
1
1
1
1
1
1
1
1
1
1
1
1
1
1
1
1
1
1
1
1
1
1
1
1
1
1
1
1
1
1
1
1
1
1
1
1
1
1

POINT_DATA 343
FIELD FieldData 3

ExternalForceID_(#) 1 343 int
0
1
2
3
4
5
6
7
8
9
10
11
12
13
14
15
16
17
18
19
20
21
22
23
24
25
26
27
28
29
30
31
32
33
34
35
36
37
38
39
40
41
42
43
44
45
46
47
48
49
50
51
52
53
54
55
56
57
58
59
60
61
62
63
64
65
66
67
68
69
70
71
72
73
74
75
76
77
78
79
80
81
82
83
84
85
86
87
88
89
90
91
92
93
94
95
96
97
98
99
100
101
102
103
104
105
106
107
108
109
110
111
112
113
114
115
116
117
118
119
120
121
122
123
124
125
126
127
128
129
130
131
132
133
134
135
136
137
138
139
140
141
142
143
144
145
146
147
148
149
150
151
152
153
154
155
156
157
158
159
160
161
162
163
164
165
166
167
168
169
170
171
172
173
174
175
176
177
178
179
180
181
182
183
184
185
186
187
188
189
190
191
192
193
194
195
196
197
198
199
200
201
202
203
204
205
206
207
208
209
210
211
212
213
214
215
216
217
218
219
220
221
222
223
224
225
226
227
228
229
230
231
232
233
234
235
236
237
238
239
240
241
242
243
244
245
246
247
248
249
250
251
252
253
254
255
256
257
258
259
260
261
262
263
264
265
266
267
268
269
270
271
272
273
274
275
276
277
278
279
280
281
282
283
284
285
286
287
288
289
290
291
292
293
294
295
296
297
298
299
300
301
302
303
304
305
306
307
308
309
310
311
312
313
314
315
316
317
318
319
320
321
322
323
324
325
326
327
328
329
330
331
332
333
334
335
336
337
338
339
340
341
342

ExternalForceType_(0/1/2/3/4) 1 343 int
0
0
0
0
0
0
0
0
0
0
0
0
0
0
0
0
0
0
0
0
0
0
0
0
0
0
0
0
0
0
0
0
0
0
0
0
0
0
0
0
0
0
0
0
0
0
0
0
0
0
0
0
0
0
0
0
0
0
0
0
0
0
0
0
0
0
0
0
0
0
0
0
0
0
0
0
0
0
0
0
0
0
0
0
0
0
0
0
0
0
0
0
0
0
0
0
0
0
0
0
0
0
0
0
0
0
0
0
0
0
0
0
0
0
0
0
0
0
0
0
0
0
0
0
0
0
0
0
0
0
0
0
0
0
0
0
0
0
0
0
0
0
0
0
0
0
0
0
0
0
0
0
0
0
0
0
0
0
0
0
0
0
0
0
0
0
0
0
0
0
0
0
0
0
0
0
0
0
0
0
0
0
0
0
0
0
0
0
0
0
0
0
0
0
0
0
0
0
0
0
0
0
0
0
0
0
0
0
0
0
0
0
0
0
0
0
0
0
0
0
0
0
0
0
0
0
0
0
0
0
0
0
0
0
0
0
0
0
0
0
0
0
0
0
0
0
0
0
0
0
0
0
0
0
0
0
0
0
0
0
0
0
0
0
0
0
0
0
0
0
0
0
0
0
0
0
0
0
0
0
0
0
0
0
0
0
0
0
0
0
0
0
0
0
0
0
0
0
0
0
0
0
0
0
0
0
0
0
0
0
0
0
0
0
0
0
0
0
0
0
0
0
0
0
0
0
0
0
0
0
0
0
0
0
0
0
0
0
0
0
0
0
0

ExternalForce_(N) 3 343 double
0 -3.09568e-05 0
0 -0.000138619 0
0 -2.16714e-05 0
0 -0.000168226 0
0 -8.26002e-05 0
0 -8.9203e-05 0
0 -9.74165e-05 0
0 -7.37906e-05 0
0 -6.68156e-05 0
0 -5.47617e-05 0
0 -3.04981e-05 0
0 -0.000105531 0
0 -4.77758e-05 0
0 -0.000161821 0
0 -2.96713e-05 0
0 -7.9067e-05 0
0 -6.57564e-05 0
0 -0.000106704 0
0 -4.11017e-05 0
0 -8.006e-05 0
0 -6.02474e-05 0
0 -0.000115662 0
0 -2.18875e-05 0
0 -4.17098e-05 0
0 -0.000107827 0
0 -7.27379e-05 0
0 -4.13856e-05 0
0 -3.85027e-05 0
0 -3.029e-05 0
0 -0.000128774 0
0 -7.57947e-05 0
0 -0.000162261 0
0 -0.000116775 0
0 -7.15802e-05 0
0 -3.74431e-05 0
0 -0.000108892 0
0 -3.74072e-05 0
0 -0.000136493 0
0 -6.25303e-05 0
0 -7.85756e-05 0
0 -7.52544e-05 0
0 -0.000116589 0
0 -0.000160874 0
0 -2.73339e-05 0
0 -8.7662e-05 0
0 -2.53184e-05 0
0 -7.42972e-05 0
0 -4.15199e-05 0
0 -0.000128792 0
0 -3.72945e-05 0
0 -2.72189e-05 0
0 -7.03157e-05 0
0 -0.000119003 0
0 -5.02041e-05 0
0 -8.04153e-05 0
0 -4.4939e-05 0
0 -2.74192e-05 0
0 -3.19929e-05 0
0 -4.04607e-05 0
0 -2.07889e-05 0
0 -3.28809e-05 0
0 -3.54797e-05 0
0 -0.000153858 0
0 -7.19739e-05 0
0 -8.09026e-05 0
0 -4.90862e-05 0
0 -2.77255e-05 0
0 -7.06591e-05 0
0 -3.20606e-05 0
0 -4.10794e-05 0
0 -1.98932e-05 0
0 -2.37551e-05 0
0 -3.0591e-05 0
0 -5.86107e-05 0
0 -5.75946e-05 0
0 -4.01595e-05 0
0 -5.35099e-05 0
0 -2.24477e-05 0
0 -4.41213e-05 0
0 -4.29866e-05 0
0 -4.42325e-05 0
0 -4.30889e-05 0
0 -4.19155e-05 0
0 -5.21923e-05 0
0 -1.5029e-05 0
0 -2.34331e-05 0
0 -1.9903e-05 0
0 -4.30461e-05 0
0 -3.11931e-05 0
0 -3.08326e-05 0
0 -4.52797e-05 0
0 -5.7648e-05 0
0 -8.02544e-05 0
0 -2.43623e-05 0
0 -0.000150893 0
0 -3.43039e-05 0
0 -7.21258e-05 0
0 -1.97489e-05 0
0 -2.00202e-05 0
0 -7.83017e-05 0
0 -4.32908e-05 0
0 -7.00326e-05 0
0 -1.17841e-05 0
0 -4.93779e-05 0
0 -1.58193e-05 0
0 -4.04762e-05 0
0 -8.57147e-05 0
0 -4.2953e-05 0
0 -7.82027e-05 0
0 -2.09499e-05 0
0 -3.31713e-05 0
0 -9.30599e-05 0
0 -7.26197e-05 0
0 -1.76801e-05 0
0 -2.06228e-05 0
0 -7.8371e-05 0
0 -1.84411e-05 0
0 -7.30662e-05 0
0 -4.11806e-05 0
0 -2.3265e-05 0
0 -4.23503e-05 0
0 -5.94919e-05 0
0 -4.22718e-05 0
0 -2.12723e-05 0
0 -1.86252e-05 0
0 -1.77849e-05 0
0 -3.82356e-05 0
0 -2.39658e-05 0
0 -1.62481e-05 0
0 -7.86148e-05 0
0 -1.61387e-05 0
0 -2.34763e-05 0
0 -2.95637e-05 0
0 -2.93742e-05 0
0 -1.33947e-05 0
0 -1.83735e-05 0
0 -2.05639e-05 0
0 -1.91062e-05 0
0 -1.84053e-05 0
0 -6.25793e-05 0
0 -4.49914e-05 0
0 -1.98914e-05 0
0 -1.58922e-05 0
0 -2.367e-05 0
0 -3.81266e-05 0
0 -4.36518e-05 0
0 -2.25472e-05 0
0 -0.000115119 0
0 -3.05886e-05 0
0 -1.32828e-05 0
0 -3.38507e-05 0
0 -1.78391e-05 0
0 -2.88237e-05 0
0 -1.34771e-05 0
0 -2.36876e-05 0
0 -2.06453e-05 0
0 -2.58912e-05 0
0 -2.10097e-05 0
0 -1.7602e-05 0
0 -3.13896e-05 0
0 -1.34386e-05 0
0 -2.38863e-05 0
0 -2.04203e-05 0
0 -1.33426e-05 0
0 -2.13076e-05 0
0 -1.86316e-05 0
0 -3.10974e-05 0
0 -2.56228e-05 0
0 -2.33161e-05 0
0 -1.57181e-05 0
0 -1.87061e-05 0
0 -5.38771e-05 0
0 -1.84308e-05 0
0 -3.08341e-05 0
0 -2.91652e-05 0
0 -1.16203e-05 0
0 -1.85667e-05 0
0 -2.00287e-05 0
0 -2.68375e-05 0
0 -2.37799e-05 0
0 -3.16945e-05 0
0 -3.13676e-05 0
0 -3.15313e-05 0
0 -1.90796e-05 0
0 -1.58134e-05 0
0 -1.83326e-05 0
0 -3.16308e-05 0
0 -2.07128e-05 0
0 -2.91276e-05 0
0 -6.03597e-05 0
0 -2.26581e-05 0
0 -2.35174e-05 0
0 -2.33506e-05 0
0 -2.59482e-05 0
0 -1.63393e-05 0
0 -1.78912e-05 0
0 -2.02658e-05 0
0 -5.62379e-05 0
0 -2.04507e-05 0
0 -2.14176e-05 0
0 -2.38895e-05 0
0 -3.05955e-05 0
0 -3.11287e-05 0
0 -2.01544e-05 0
0 -1.92198e-05 0
0 -2.99909e-05 0
0 -6.32085e-05 0
0 -2.04829e-05 0
0 -2.67435e-05 0
0 -2.11611e-05 0
0 -1.83262e-05 0
0 -1.96474e-05 0
0 -2.0699e-05 0
0 -2.83503e-05 0
0 -2.27807e-05 0
0 -2.35234e-05 0
0 -1.93874e-05 0
0 -6.29086e-05 0
0 -2.12117e-05 0
0 -3.22943e-05 0
0 -2.06229e-05 0
0 -2.61501e-05 0
0 -1.90721e-05 0
0 -2.86319e-05 0
0 -2.53212e-05 0
0 -2.07681e-05 0
0 -2.05553e-05 0
0 -1.88077e-05 0
0 -6.92631e-05 0
0 -2.20924e-05 0
0 -2.02457e-05 0
0 -6.16224e-05 0
0 -2.08117e-05 0
0 -2.85397e-05 0
0 -2.08875e-05 0
0 -6.32617e-05 0
0 -1.39008e-05 0
0 -2.0289e-05 0
0 -6.45558e-05 0
0 -2.47785e-05 0
0 -2.35177e-05 0
0 -7.28089e-06 0
0 -2.18143e-05 0
0 -6.93323e-06 0
0 -6.87344e-06 0
0 -8.76768e-06 0
0 -2.48719e-05 0
0 -2.22231e-05 0
0 -1.31068e-05 0
0 -7.69816e-06 0
0 -2.27889e-05 0
0 -5.95166e-06 0
0 -6.55579e-06 0
0 -6.71305e-06 0
0 -2.46468e-05 0
0 -2.27228e-05 0
0 -7.6878e-06 0
0 -6.67903e-06 0
0 -6.10861e-05 0
0 -6.6189e-06 0
0 -6.52665e-06 0
0 -6.87836e-06 0
0 -1.78856e-05 0
0 -1.87072e-05 0
0 -6.73674e-06 0
0 -6.91401e-06 0
0 -1.82903e-05 0
0 -2.2423e-05 0
0 -6.67521e-06 0
0 -7.02401e-06 0
0 -1.78908e-05 0
0 -5.89658e-06 0
0 -1.98938e-05 0
0 -7.3162e-06 0
0 -5.63509e-06 0
0 -1.76631e-05 0
0 -1.42638e-05 0
0 -2.22707e-05 0
0 -1.77204e-05 0
0 -2.11264e-05 0
0 -1.75686e-05 0
0 -1.76047e-05 0
0 -6.69346e-06 0
0 -2.20467e-05 0
0 -1.42479e-05 0
0 -1.76144e-05 0
0 -6.84615e-06 0
0 -6.12404e-06 0
0 -6.50125e-06 0
0 -1.41879e-05 0
0 -1.37476e-05 0
0 -2.11168e-05 0
0 -1.79377e-05 0
0 -1.37282e-05 0
0 -1.41198e-05 0
0 -2.15061e-05 0
0 -6.84475e-06 0
0 -1.74349e-05 0
0 -1.75758e-05 0
0 -6.41828e-06 0
0 -7.20025e-06 0
0 -2.30432e-05 0
0 -6.96894e-06 0
0 -6.44499e-06 0
0 -6.14414e-06 0
0 -2.14766e-05 0
0 -6.00855e-06 0
0 -5.92427e-06 0
0 -5.81567e-06 0
0 -5.02303e-06 0
0 -5.01945e-06 0
0 -4.85271e-06 0
0 -4.87573e-06 0
0 -4.8684e-06 0
0 -5.22951e-06 0
0 -4.84801e-06 0
0 -4.88396e-06 0
0 -4.77612e-06 0
0 -4.81304e-06 0
0 -4.85251e-06 0
0 -4.8555e-06 0
0 -4.82575e-06 0
0 -4.80313e-06 0
0 -4.86923e-06 0
0 -4.85781e-06 0
0 -4.73027e-06 0
0 -1.08748e-05 0
0 -5.22863e-06 0
0 -5.34413e-06 0
0 -5.26459e-06 0
0 -5.05624e-06 0
0 -4.92238e-06 0
0 -5.43253e-06 0
0 -5.43253e-06 0
0 -5.43253e-06 0
0 -5.43253e-06 0
0 -5.43253e-06 0
0 -5.43253e-06 0
0 -5.40321e-06 0
0 -5.40321e-06 0
0 -7.3113e-06 0
0 -6.98147e-06 0
0 -4.8949e-06 0

