# vtk DataFile Version 4.2
vtk output
ASCII
DATASET UNSTRUCTURED_GRID

POINTS 343 double
0.00112252 0.00419491 8.5891e-08
0.00217114 0.00498249 0.00217534
0 0.00419538 0.00112517
0.00193008 0.00195444 0.00194215
0.00516958 0.00240673 0.00503209
0.00517239 0.0038299 0.00639735
0.00762284 0.00477512 0.00499852
0.00622472 0.00485019 0.00369155
0.00683653 0.00328837 0.0069136
0.00499123 0.00499239 0.00499967
0.00418066 0.00111806 0.00999892
0.00528123 0.00208013 0.00790382
0.00419046 -7.49574e-06 0.008317
0.00201246 0.00200247 0.00803323
0.00428647 0.00253279 0.00999895
0.00695697 0.00644651 0.00694651
0.00641399 0.00618218 0.00518277
0.00226064 0.00218461 0.00514609
0 0.00143586 0.00417514
0.00159462 0.00346614 0.00403703
0.00683721 0.0031937 0.00316121
0.0077456 0.00221274 0.00506349
0 0.00270918 0.00154168
0.00415813 0.00142843 9.93407e-08
0.00500778 0.00218769 0.00219787
0.00396247 0.00352662 0.00160305
0.00134539 -6.04627e-07 0.00406001
0.00418329 -7.86464e-06 0.00168819
0.00262625 0.0069516 1.16281e-07
0.00193837 0.00805272 0.0019449
0.00408771 0.00624796 0.00164503
0.00800354 0.00798555 0.00799661
0.00796534 0.0048152 0.00802165
0.00838867 0.00607913 0.0059473
0.00999933 0.00882483 0.00419103
0.00757725 0.00763527 0.0049632
0.0085673 0.00997949 0.00416584
0.00797665 0.00797066 0.00201545
0.00353619 0.00303647 0.00695944
0.0044377 0.00366179 0.0083238
0.00389248 0.00160046 0.00596895
0.00500596 0.00766811 0.00767642
0.00198982 0.00800786 0.00798962
0.00282778 0.00999724 0.0071271
0.00391693 0.0083994 0.00595772
0 0.00695361 0.00262895
0.00164657 0.00623924 0.00408789
0 0.0040177 0.00850214
0.0023152 0.00498568 0.00766147
0.00143342 0.00417446 0.00999994
0.00717563 0.0071177 0.00999721
0.00611868 0.00597047 0.00841691
0.00205202 0.0079414 0.00474183
0.00304395 0.00694284 0.00646766
0.00158702 0.00607834 0.005926
0.00998969 0.005783 0.00831358
0 0.00718191 0.00711644
0.00158458 0.00577343 4.12975e-08
0 0.00577432 0.00158701
0.00999441 0.00715671 0.00711305
0.00286775 0.00334925 0.00999959
0.00997026 0.00140835 0.00417316
0.00803617 0.00194246 0.00197844
0.00838944 0.00350159 0.00399758
0.00372586 0.00164794 0.00412828
0.00150949 0.00999968 0.00581501
0.00280972 -3.61097e-06 0.00712767
0.00611024 0.00417118 0.00837539
0.00999312 0.00724875 0.00419335
0.00852863 -2.25843e-05 0.00416672
0.00334155 0.00286961 8.5165e-08
0.00270052 0.00153881 0.00999963
0.00281843 -3.99911e-06 0.00283201
0.00479825 0.00519391 0.00755395
0.00315823 0.00314622 0.00316733
0 0.00849157 0.00581511
0.00486488 0.00366936 0.00378605
0.00153702 0.00270865 3.27661e-08
0.00580046 0.0083157 0.00999787
0.00598554 0.00998905 0.00850441
0.00421459 0.00999395 0.00831706
0.0040184 0.0084982 0.0099987
0.00999881 0.00846614 0.00581205
0.00314757 0.00683347 0.00315085
0 0.00748929 0.00137438
0.00137342 0.00748898 1.69957e-08
0 0.00287343 0.00335182
0 0.00580816 0.00831736
0 0.00429792 0.00253898
0.00253347 0.00429588 1.32315e-07
0.00143405 0.00581916 0.00999994
0.00517575 0.0064684 0.00639979
0.0036037 0.00650929 0.00823365
0.00693312 0.00261271 0.00999756
0.00800009 0.00193935 0.00803332
0.00694195 -1.68063e-05 0.00308145
0.00600081 0.00165223 0.00361244
0.00997537 0.00284677 0.00335006
0 0.00140616 0.00256446
0.0063738 0.00821642 0.00641985
0.00579637 0.00142309 1.5766e-07
0.00602196 0.00354075 0.00160294
0.00315741 0.00999643 0.00582505
0.00856284 0.00997968 0.00583092
0.00255389 0.00140298 1.40778e-07
0.0059499 -1.33664e-05 0.0014943
0.00628051 0.00827644 0.00361658
0.00852428 -2.24028e-05 0.0058315
0.00618702 0.00166033 0.00636432
0.00140243 0.00256405 0.00999999
0.0071109 0.00716741 -5.91457e-07
0.0051652 0.00768208 0.00216859
0.00593625 0.00608357 0.00160151
0 0.00686719 0.00578184
0.00996925 0.00137844 0.00256302
0.00177235 0.00360987 0.00640784
0.00999711 0.00846115 0.00262166
0.00840353 0.00617007 0.00413125
0.00598294 0.00998837 0.00149326
0.00694244 -1.65095e-05 0.00692508
0.0099712 0.00140817 0.00581706
0.00837977 0.00355354 0.00605894
0.00150194 -7.6873e-07 0.00581519
0 0.0013659 0.00748679
0.0013638 -6.42238e-07 0.00752891
0.0099924 0.00684192 0.00577888
0.005815 0.00848097 -3.66353e-07
0 0.0075208 0.00859127
0.00136532 0.00748644 0.00999987
0.00423116 0.00820019 0.00362806
0.0085966 0.00997956 0.00750931
0.0100004 0.00860494 0.00752272
0.00575588 0.00157545 0.00999812
0.00724639 0.00417322 0.00999735
0 0.0057735 0.00666667
0.00137046 0.00999961 0.00752892
0 0.00863025 0.00752641
0.0085544 -2.30097e-05 0.00250658
0.00999102 0.00692801 0.00262701
0.00845027 0.00632255 0.00216173
0.00850116 0.00580462 0.00999662
0.00746657 0.00135663 0.00999718
0.00855792 -2.26142e-05 0.00750948
0.00997183 0.00133864 0.00748346
0 0.00143551 0.00581971
0.00595287 -1.28919e-05 0.00850434
0.00419329 -7.90371e-06 0.00339989
0.00791992 0.00468989 0.00203361
0.00998048 0.00427187 0.0025373
0.00423201 0.00999372 0.00666594
0.00283674 0.00999729 0.00283187
0.00130702 -6.6165e-07 0.00241833
0 0.00727418 0.00419576
0.00998856 0.00574826 0.00666344
0.0069776 0.00998512 0.00308055
0.00750943 0.00862113 0.00999702
0 0.00574334 0.00336387
0 0.0043297 0.00416652
0.00686291 0.00577124 0.00999755
0.00997792 0.00299591 0.00691212
0.00420637 -7.68879e-06 0.00666629
0.00248078 0.00999765 0.00861128
0.00745909 0.00134754 -1.8478e-07
0.00577119 0.00665744 0.00999792
0.00999662 0.00749571 0.00858729
0.00860655 0.00753404 0.00999648
0.00689461 0.00300717 -4.89538e-08
0.00335875 0.00574038 1.79459e-07
0.00752554 0.00861376 -8.48647e-07
0.00751906 0.00998287 0.00138627
0.00577661 0.00685738 -2.87114e-07
0.00696805 0.0063572 0.00303255
0.00748227 -1.91643e-05 0.00138738
0.0028808 0.00499711 0.00999948
0.00432607 0.00582856 0.00999871
0.00432196 0.00416143 0.00999878
0.00752253 0.00998347 0.00861338
0.00246518 -3.04273e-06 0.00861148
0.00998653 0.00571779 0.00336188
0 0.00302218 0.00691532
0.00998267 0.00399207 0.00849838
0.00848225 0.00399709 -5.88348e-07
0.00997379 0.00268216 0.00154043
0 0.00244495 0.00857025
0.00244637 0.00856817 0.0099994
0.00748588 -1.86493e-05 0.00861328
0.00846699 0.00260336 0.00999664
0.00883652 0.00417278 0.00999644
0.00567582 0.00998968 0.00583228
0.00518513 0.00757572 0.00503173
0.00564751 0.00998962 0.00421444
0.00697798 0.00998546 0.00692472
0.00302111 0.00691329 0.00999924
0.00415694 0.00432456 2.18141e-07
0.00282151 -4.12785e-06 0.00440472
0.00313782 -4.60594e-06 0.00582548
0.00997937 0.00416906 0.00112387
0.00363793 0.00833314 0.00158818
0.00998149 0.0043038 0.00416437
0.00665642 0.00576065 -2.16543e-07
0.00859322 0.00997915 0.00250546
0 0.00848692 0.00262374
0.00135218 0.00999966 0.00405987
0 0.00885053 0.00419359
0.00419471 0.00884425 -6.16522e-08
0.00420862 0.00999353 0.0016875
0.00498978 0.00478433 0.00237868
0.0072038 0.00450633 -2.25458e-07
0.00561635 -1.22627e-05 0.00421525
0.00564473 -1.21929e-05 0.00583273
0.00131366 0.00999967 0.00241806
0.00854419 0.00242329 -4.91403e-07
0.00998395 0.00449619 0.00721621
0.00712047 0.00998483 0.00499872
0.00573072 0.00335406 0.00999816
0.00244561 -3.24419e-06 0.00135672
0.00997656 0.00241835 0.00856656
0.00239183 0.00478976 0.00499989
0.0058195 0.00431974 8.71506e-08
0.00830477 0.00578885 -7.88592e-07
0.00548512 0.00999043 0.00721924
0.00998239 0.00430439 0.00583052
0.00540729 0.00999022 0.00277499
0.00708449 -1.71078e-05 0.00499944
0.00283928 0.0099973 0.00440429
0 0.00452174 0.00721958
0.00452072 0.00721447 0.00999855
0.00545461 -1.13963e-05 0.00721923
0.00359802 0.00507043 0.00359645
0.00425654 0.00999367 0.00500772
0.00423021 -7.87153e-06 0.00500838
0.00366639 0.00521341 0.00617434
0 0.005744 0.00499998
0 0.00433013 0.00583333
0.00499227 0.00573704 1.04456e-07
0.00498032 0.00633226 0.00355348
0.00537668 -1.15952e-05 0.0027759
0.00998747 0.00571864 0.00499738
0.00368797 0.00640434 0.00484373
0.00573654 0.00499112 0.00999808
0.00998576 0.00574855 0.00158547
0 0.00666667 0
0.008585 0.00750059 -1.13444e-06
0.00331616 -6.09875e-06 7.25466e-07
0 0.01 0.00666667
0.00500701 0.00999155 0.00999849
0 0.00288419 0.00499914
0.00999252 0.00746356 0.00137273
0.00998863 0.00664085 -1.54991e-06
0 0.005 0.01
0.00498296 0.0028757 1.27499e-07
0 0.005 0
0.00996419 -2.84314e-05 0.00333179
0.0100053 0.00997396 0.00666317
0.00419293 0.00726893 1.4724e-08
0.00997625 0.00285775 0.00499675
0.00497564 -1.0919e-05 6.30969e-07
0 0 0.00666667
0.00379052 0.00361263 0.00522615
0.00497923 -1.04048e-05 0.00999812
0.00996604 -2.81592e-05 0.00666369
0 0 0.005
0.0087837 0.0099782 0.00121858
0.00999759 0.00875382 0.00121828
0.00996508 -2.82492e-05 0.00499777
0.00998206 0.00497376 -1.30841e-06
0.00121553 0.00121925 -1.1857e-08
0 0.00122008 0.00122008
0 0.00333333 0.01
0 0.00666667 0.01
0.0087784 0.0087585 -1.37037e-06
0.0100035 0.00997359 0.00333084
0.00421943 0.00999362 0.00339928
0.00999402 0.00664168 0.00999581
0 0.00333333 0
0 0.00122008 0.00877992
0.00121503 -8.17602e-07 0.00877968
0.00121623 0.00121952 0.0100001
0.00878764 0.00997879 0.00877663
0.00122014 0.00877945 0.00999987
0 0.00877992 0.00877992
0.0100018 0.00875455 0.0087759
0.00667108 0.00998575 -9.50345e-07
0.00996777 0.00119205 0.00121905
0.0012211 0.00999945 0.00878007
0.00878371 0.0087593 0.00999642
0.0099874 0.0049747 0.00999584
0 0 0.00333333
0.00663615 -1.62459e-05 4.27238e-07
0.0087447 -2.39765e-05 0.00121979
0.00120596 -8.61877e-07 0.00121208
0 0.00877992 0.00122008
0.00121992 0.00877939 9.41506e-08
0.00121229 0.00999951 0.00121141
0.00997191 0.00119265 0.00877603
0.00875411 0.0011973 0.00999639
0.00664083 -1.5751e-05 0.00999713
0.00874878 0.00119667 -4.31737e-07
0.00874882 -2.34485e-05 0.00877646
0.00997555 0.00330652 -1.10702e-06
0.0033385 0.00999553 0.00999943
0.00246171 0.00999785 0.00135629
0.00667532 0.00998647 0.00999771
0.00998083 0.00330744 0.00999584
0 0.01 0.005
0.00262384 0.00848459 1.15592e-07
0.0100044 0.00997379 0.00499709
0 0.01 0.00333333
0 0.00166667 0
0.00996329 -2.8684e-05 0.00166571
0 0.00166667 0.01
0 0.00833333 0
0.00999531 0.00830722 -1.7757e-06
0.00996697 -2.82178e-05 0.00832947
0.0100027 0.00997338 0.00166463
0.0100063 0.00997399 0.00832942
0.00166914 0.00999851 0.00999985
0 0.01 0.00833333
0.00833701 0.0099797 -1.39425e-06
0.00829856 -2.25642e-05 -9.82272e-08
0.00830381 -2.20208e-05 0.00999636
0.00834193 0.00998031 0.00999673
0 0 0.00833333
0.0100007 0.00830809 0.00999575
0.00165782 -2.12587e-06 2.33454e-07
0 0 0.00166667
0.00333721 0.00999567 -5.90202e-08
0.00997431 0.0016394 0.00999578
0.00996897 0.00163873 -9.63503e-07
0.00165918 -1.73876e-06 0.00999995
0.00166851 0.0099988 4.12004e-08
0 0.01 0.00166667
0.0100073 0.00997403 0.00999582
0 0 0.01
0.0100019 0.00997319 -2.05783e-06
0.00996784 -2.83325e-05 0.00999551
0 0.01 0.01
0.00996245 -2.88845e-05 -7.06991e-07
0 0.01 0
0 0 0
0.00500436 0.00999104 -4.28131e-07
0.00331873 -5.50526e-06 0.00999893
0 0.00833333 0.01

CELLS 343 686
1 0
1 1
1 2
1 3
1 4
1 5
1 6
1 7
1 8
1 9
1 10
1 11
1 12
1 13
1 14
1 15
1 16
1 17
1 18
1 19
1 20
1 21
1 22
1 23
1 24
1 25
1 26
1 27
1 28
1 29
1 30
1 31
1 32
1 33
1 34
1 35
1 36
1 37
1 38
1 39
1 40
1 41
1 42
1 43
1 44
1 45
1 46
1 47
1 48
1 49
1 50
1 51
1 52
1 53
1 54
1 55
1 56
1 57
1 58
1 59
1 60
1 61
1 62
1 63
1 64
1 65
1 66
1 67
1 68
1 69
1 70
1 71
1 72
1 73
1 74
1 75
1 76
1 77
1 78
1 79
1 80
1 81
1 82
1 83
1 84
1 85
1 86
1 87
1 88
1 89
1 90
1 91
1 92
1 93
1 94
1 95
1 96
1 97
1 98
1 99
1 100
1 101
1 102
1 103
1 104
1 105
1 106
1 107
1 108
1 109
1 110
1 111
1 112
1 113
1 114
1 115
1 116
1 117
1 118
1 119
1 120
1 121
1 122
1 123
1 124
1 125
1 126
1 127
1 128
1 129
1 130
1 131
1 132
1 133
1 134
1 135
1 136
1 137
1 138
1 139
1 140
1 141
1 142
1 143
1 144
1 145
1 146
1 147
1 148
1 149
1 150
1 151
1 152
1 153
1 154
1 155
1 156
1 157
1 158
1 159
1 160
1 161
1 162
1 163
1 164
1 165
1 166
1 167
1 168
1 169
1 170
1 171
1 172
1 173
1 174
1 175
1 176
1 177
1 178
1 179
1 180
1 181
1 182
1 183
1 184
1 185
1 186
1 187
1 188
1 189
1 190
1 191
1 192
1 193
1 194
1 195
1 196
1 197
1 198
1 199
1 200
1 201
1 202
1 203
1 204
1 205
1 206
1 207
1 208
1 209
1 210
1 211
1 212
1 213
1 214
1 215
1 216
1 217
1 218
1 219
1 220
1 221
1 222
1 223
1 224
1 225
1 226
1 227
1 228
1 229
1 230
1 231
1 232
1 233
1 234
1 235
1 236
1 237
1 238
1 239
1 240
1 241
1 242
1 243
1 244
1 245
1 246
1 247
1 248
1 249
1 250
1 251
1 252
1 253
1 254
1 255
1 256
1 257
1 258
1 259
1 260
1 261
1 262
1 263
1 264
1 265
1 266
1 267
1 268
1 269
1 270
1 271
1 272
1 273
1 274
1 275
1 276
1 277
1 278
1 279
1 280
1 281
1 282
1 283
1 284
1 285
1 286
1 287
1 288
1 289
1 290
1 291
1 292
1 293
1 294
1 295
1 296
1 297
1 298
1 299
1 300
1 301
1 302
1 303
1 304
1 305
1 306
1 307
1 308
1 309
1 310
1 311
1 312
1 313
1 314
1 315
1 316
1 317
1 318
1 319
1 320
1 321
1 322
1 323
1 324
1 325
1 326
1 327
1 328
1 329
1 330
1 331
1 332
1 333
1 334
1 335
1 336
1 337
1 338
1 339
1 340
1 341
1 342

CELL_TYPES 343
1
1
1
1
1
1
1
1
1
1
1
1
1
1
1
1
1
1
1
1
1
1
1
1
1
1
1
1
1
1
1
1
1
1
1
1
1
1
1
1
1
1
1
1
1
1
1
1
1
1
1
1
1
1
1
1
1
1
1
1
1
1
1
1
1
1
1
1
1
1
1
1
1
1
1
1
1
1
1
1
1
1
1
1
1
1
1
1
1
1
1
1
1
1
1
1
1
1
1
1
1
1
1
1
1
1
1
1
1
1
1
1
1
1
1
1
1
1
1
1
1
1
1
1
1
1
1
1
1
1
1
1
1
1
1
1
1
1
1
1
1
1
1
1
1
1
1
1
1
1
1
1
1
1
1
1
1
1
1
1
1
1
1
1
1
1
1
1
1
1
1
1
1
1
1
1
1
1
1
1
1
1
1
1
1
1
1
1
1
1
1
1
1
1
1
1
1
1
1
1
1
1
1
1
1
1
1
1
1
1
1
1
1
1
1
1
1
1
1
1
1
1
1
1
1
1
1
1
1
1
1
1
1
1
1
1
1
1
1
1
1
1
1
1
1
1
1
1
1
1
1
1
1
1
1
1
1
1
1
1
1
1
1
1
1
1
1
1
1
1
1
1
1
1
1
1
1
1
1
1
1
1
1
1
1
1
1
1
1
1
1
1
1
1
1
1
1
1
1
1
1
1
1
1
1
1
1
1
1
1
1
1
1
1
1
1
1
1
1
1
1
1
1
1
1
1
1
1
1
1
1
1
1
1
1
1
1
1
1
1
1
1
1

POINT_DATA 343
FIELD FieldData 3

ExternalForceID_(#) 1 343 int
0
1
2
3
4
5
6
7
8
9
10
11
12
13
14
15
16
17
18
19
20
21
22
23
24
25
26
27
28
29
30
31
32
33
34
35
36
37
38
39
40
41
42
43
44
45
46
47
48
49
50
51
52
53
54
55
56
57
58
59
60
61
62
63
64
65
66
67
68
69
70
71
72
73
74
75
76
77
78
79
80
81
82
83
84
85
86
87
88
89
90
91
92
93
94
95
96
97
98
99
100
101
102
103
104
105
106
107
108
109
110
111
112
113
114
115
116
117
118
119
120
121
122
123
124
125
126
127
128
129
130
131
132
133
134
135
136
137
138
139
140
141
142
143
144
145
146
147
148
149
150
151
152
153
154
155
156
157
158
159
160
161
162
163
164
165
166
167
168
169
170
171
172
173
174
175
176
177
178
179
180
181
182
183
184
185
186
187
188
189
190
191
192
193
194
195
196
197
198
199
200
201
202
203
204
205
206
207
208
209
210
211
212
213
214
215
216
217
218
219
220
221
222
223
224
225
226
227
228
229
230
231
232
233
234
235
236
237
238
239
240
241
242
243
244
245
246
247
248
249
250
251
252
253
254
255
256
257
258
259
260
261
262
263
264
265
266
267
268
269
270
271
272
273
274
275
276
277
278
279
280
281
282
283
284
285
286
287
288
289
290
291
292
293
294
295
296
297
298
299
300
301
302
303
304
305
306
307
308
309
310
311
312
313
314
315
316
317
318
319
320
321
322
323
324
325
326
327
328
329
330
331
332
333
334
335
336
337
338
339
340
341
342

ExternalForceType_(0/1/2/3/4) 1 343 int
0
0
0
0
0
0
0
0
0
0
0
0
0
0
0
0
0
0
0
0
0
0
0
0
0
0
0
0
0
0
0
0
0
0
0
0
0
0
0
0
0
0
0
0
0
0
0
0
0
0
0
0
0
0
0
0
0
0
0
0
0
0
0
0
0
0
0
0
0
0
0
0
0
0
0
0
0
0
0
0
0
0
0
0
0
0
0
0
0
0
0
0
0
0
0
0
0
0
0
0
0
0
0
0
0
0
0
0
0
0
0
0
0
0
0
0
0
0
0
0
0
0
0
0
0
0
0
0
0
0
0
0
0
0
0
0
0
0
0
0
0
0
0
0
0
0
0
0
0
0
0
0
0
0
0
0
0
0
0
0
0
0
0
0
0
0
0
0
0
0
0
0
0
0
0
0
0
0
0
0
0
0
0
0
0
0
0
0
0
0
0
0
0
0
0
0
0
0
0
0
0
0
0
0
0
0
0
0
0
0
0
0
0
0
0
0
0
0
0
0
0
0
0
0
0
0
0
0
0
0
0
0
0
0
0
0
0
0
0
0
0
0
0
0
0
0
0
0
0
0
0
0
0
0
0
0
0
0
0
0
0
0
0
0
0
0
0
0
0
0
0
0
0
0
0
0
0
0
0
0
0
0
0
0
0
0
0
0
0
0
0
0
0
0
0
0
0
0
0
0
0
0
0
0
0
0
0
0
0
0
0
0
0
0
0
0
0
0
0
0
0
0
0
0
0
0
0
0
0
0
0
0
0
0
0
0
0
0
0
0
0
0
0

ExternalForce_(N) 3 343 double
0 -3.09568e-05 0
0 -0.000138619 0
0 -2.16714e-05 0
0 -0.000168226 0
0 -8.26002e-05 0
0 -8.9203e-05 0
0 -9.74165e-05 0
0 -7.37906e-05 0
0 -6.68156e-05 0
0 -5.47617e-05 0
0 -3.04981e-05 0
0 -0.000105531 0
0 -4.77758e-05 0
0 -0.000161821 0
0 -2.96713e-05 0
0 -7.9067e-05 0
0 -6.57564e-05 0
0 -0.000106704 0
0 -4.11017e-05 0
0 -8.006e-05 0
0 -6.02474e-05 0
0 -0.000115662 0
0 -2.18875e-05 0
0 -4.17098e-05 0
0 -0.000107827 0
0 -7.27379e-05 0
0 -4.13856e-05 0
0 -3.85027e-05 0
0 -3.029e-05 0
0 -0.000128774 0
0 -7.57947e-05 0
0 -0.000162261 0
0 -0.000116775 0
0 -7.15802e-05 0
0 -3.74431e-05 0
0 -0.000108892 0
0 -3.74072e-05 0
0 -0.000136493 0
0 -6.25303e-05 0
0 -7.85756e-05 0
0 -7.52544e-05 0
0 -0.000116589 0
0 -0.000160874 0
0 -2.73339e-05 0
0 -8.7662e-05 0
0 -2.53184e-05 0
0 -7.42972e-05 0
0 -4.15199e-05 0
0 -0.000128792 0
0 -3.72945e-05 0
0 -2.72189e-05 0
0 -7.03157e-05 0
0 -0.000119003 0
0 -5.02041e-05 0
0 -8.04153e-05 0
0 -4.4939e-05 0
0 -2.74192e-05 0
0 -3.19929e-05 0
0 -4.04607e-05 0
0 -2.07889e-05 0
0 -3.28809e-05 0
0 -3.54797e-05 0
0 -0.000153858 0
0 -7.19739e-05 0
0 -8.09026e-05 0
0 -4.90862e-05 0
0 -2.77255e-05 0
0 -7.06591e-05 0
0 -3.20606e-05 0
0 -4.10794e-05 0
0 -1.98932e-05 0
0 -2.37551e-05 0
0 -3.0591e-05 0
0 -5.86107e-05 0
0 -5.75946e-05 0
0 -4.01595e-05 0
0 -5.35099e-05 0
0 -2.24477e-05 0
0 -4.41213e-05 0
0 -4.29866e-05 0
0 -4.42325e-05 0
0 -4.30889e-05 0
0 -4.19155e-05 0
0 -5.21923e-05 0
0 -1.5029e-05 0
0 -2.34331e-05 0
0 -1.9903e-05 0
0 -4.30461e-05 0
0 -3.11931e-05 0
0 -3.08326e-05 0
0 -4.52797e-05 0
0 -5.7648e-05 0
0 -8.02544e-05 0
0 -2.43623e-05 0
0 -0.000150893 0
0 -3.43039e-05 0
0 -7.21258e-05 0
0 -1.97489e-05 0
0 -2.00202e-05 0
0 -7.83017e-05 0
0 -4.32908e-05 0
0 -7.00326e-05 0
0 -1.17841e-05 0
0 -4.93779e-05 0
0 -1.58193e-05 0
0 -4.04762e-05 0
0 -8.57147e-05 0
0 -4.2953e-05 0
0 -7.82027e-05 0
0 -2.09499e-05 0
0 -3.31713e-05 0
0 -9.30599e-05 0
0 -7.26197e-05 0
0 -1.76801e-05 0
0 -2.06228e-05 0
0 -7.8371e-05 0
0 -1.84411e-05 0
0 -7.30662e-05 0
0 -4.11806e-05 0
0 -2.3265e-05 0
0 -4.23503e-05 0
0 -5.94919e-05 0
0 -4.22718e-05 0
0 -2.12723e-05 0
0 -1.86252e-05 0
0 -1.77849e-05 0
0 -3.82356e-05 0
0 -2.39658e-05 0
0 -1.62481e-05 0
0 -7.86148e-05 0
0 -1.61387e-05 0
0 -2.34763e-05 0
0 -2.95637e-05 0
0 -2.93742e-05 0
0 -1.33947e-05 0
0 -1.83735e-05 0
0 -2.05639e-05 0
0 -1.91062e-05 0
0 -1.84053e-05 0
0 -6.25793e-05 0
0 -4.49914e-05 0
0 -1.98914e-05 0
0 -1.58922e-05 0
0 -2.367e-05 0
0 -3.81266e-05 0
0 -4.36518e-05 0
0 -2.25472e-05 0
0 -0.000115119 0
0 -3.05886e-05 0
0 -1.32828e-05 0
0 -3.38507e-05 0
0 -1.78391e-05 0
0 -2.88237e-05 0
0 -1.34771e-05 0
0 -2.36876e-05 0
0 -2.06453e-05 0
0 -2.58912e-05 0
0 -2.10097e-05 0
0 -1.7602e-05 0
0 -3.13896e-05 0
0 -1.34386e-05 0
0 -2.38863e-05 0
0 -2.04203e-05 0
0 -1.33426e-05 0
0 -2.13076e-05 0
0 -1.86316e-05 0
0 -3.10974e-05 0
0 -2.56228e-05 0
0 -2.33161e-05 0
0 -1.57181e-05 0
0 -1.87061e-05 0
0 -5.38771e-05 0
0 -1.84308e-05 0
0 -3.08341e-05 0
0 -2.91652e-05 0
0 -1.16203e-05 0
0 -1.85667e-05 0
0 -2.00287e-05 0
0 -2.68375e-05 0
0 -2.37799e-05 0
0 -3.16945e-05 0
0 -3.13676e-05 0
0 -3.15313e-05 0
0 -1.90796e-05 0
0 -1.58134e-05 0
0 -1.83326e-05 0
0 -3.16308e-05 0
0 -2.07128e-05 0
0 -2.91276e-05 0
0 -6.03597e-05 0
0 -2.26581e-05 0
0 -2.35174e-05 0
0 -2.33506e-05 0
0 -2.59482e-05 0
0 -1.63393e-05 0
0 -1.78912e-05 0
0 -2.02658e-05 0
0 -5.62379e-05 0
0 -2.04507e-05 0
0 -2.14176e-05 0
0 -2.38895e-05 0
0 -3.05955e-05 0
0 -3.11287e-05 0
0 -2.01544e-05 0
0 -1.92198e-05 0
0 -2.99909e-05 0
0 -6.32085e-05 0
0 -2.04829e-05 0
0 -2.67435e-05 0
0 -2.11611e-05 0
0 -1.83262e-05 0
0 -1.96474e-05 0
0 -2.0699e-05 0
0 -2.83503e-05 0
0 -2.27807e-05 0
0 -2.35234e-05 0
0 -1.93874e-05 0
0 -6.29086e-05 0
0 -2.12117e-05 0
0 -3.22943e-05 0
0 -2.06229e-05 0
0 -2.61501e-05 0
0 -1.90721e-05 0
0 -2.86319e-05 0
0 -2.53212e-05 0
0 -2.07681e-05 0
0 -2.05553e-05 0
0 -1.88077e-05 0
0 -6.92631e-05 0
0 -2.20924e-05 0
0 -2.02457e-05 0
0 -6.16224e-05 0
0 -2.08117e-05 0
0 -2.85397e-05 0
0 -2.08875e-05 0
0 -6.32617e-05 0
0 -1.39008e-05 0
0 -2.0289e-05 0
0 -6.45558e-05 0
0 -2.47785e-05 0
0 -2.35177e-05 0
0 -7.28089e-06 0
0 -2.18143e-05 0
0 -6.93323e-06 0
0 -6.87344e-06 0
0 -8.76768e-06 0
0 -2.48719e-05 0
0 -2.22231e-05 0
0 -1.31068e-05 0
0 -7.69816e-06 0
0 -2.27889e-05 0
0 -5.95166e-06 0
0 -6.55579e-06 0
0 -6.71305e-06 0
0 -2.46468e-05 0
0 -2.27228e-05 0
0 -7.6878e-06 0
0 -6.67903e-06 0
0 -6.10861e-05 0
0 -6.6189e-06 0
0 -6.52665e-06 0
0 -6.87836e-06 0
0 -1.78856e-05 0
0 -1.87072e-05 0
0 -6.73674e-06 0
0 -6.91401e-06 0
0 -1.82903e-05 0
0 -2.2423e-05 0
0 -6.67521e-06 0
0 -7.02401e-06 0
0 -1.78908e-05 0
0 -5.89658e-06 0
0 -1.98938e-05 0
0 -7.3162e-06 0
0 -5.63509e-06 0
0 -1.76631e-05 0
0 -1.42638e-05 0
0 -2.22707e-05 0
0 -1.77204e-05 0
0 -2.11264e-05 0
0 -1.75686e-05 0
0 -1.76047e-05 0
0 -6.69346e-06 0
0 -2.20467e-05 0
0 -1.42479e-05 0
0 -1.76144e-05 0
0 -6.84615e-06 0
0 -6.12404e-06 0
0 -6.50125e-06 0
0 -1.41879e-05 0
0 -1.37476e-05 0
0 -2.11168e-05 0
0 -1.79377e-05 0
0 -1.37282e-05 0
0 -1.41198e-05 0
0 -2.15061e-05 0
0 -6.84475e-06 0
0 -1.74349e-05 0
0 -1.75758e-05 0
0 -6.41828e-06 0
0 -7.20025e-06 0
0 -2.30432e-05 0
0 -6.96894e-06 0
0 -6.44499e-06 0
0 -6.14414e-06 0
0 -2.14766e-05 0
0 -6.00855e-06 0
0 -5.92427e-06 0
0 -5.81567e-06 0
0 -5.02303e-06 0
0 -5.01945e-06 0
0 -4.85271e-06 0
0 -4.87573e-06 0
0 -4.8684e-06 0
0 -5.22951e-06 0
0 -4.84801e-06 0
0 -4.88396e-06 0
0 -4.77612e-06 0
0 -4.81304e-06 0
0 -4.85251e-06 0
0 -4.8555e-06 0
0 -4.82575e-06 0
0 -4.80313e-06 0
0 -4.86923e-06 0
0 -4.85781e-06 0
0 -4.73027e-06 0
0 -1.08748e-05 0
0 -5.22863e-06 0
0 -5.34413e-06 0
0 -5.26459e-06 0
0 -5.05624e-06 0
0 -4.92238e-06 0
0 -5.43253e-06 0
0 -5.43253e-06 0
0 -5.43253e-06 0
0 -5.43253e-06 0
0 -5.43253e-06 0
0 -5.43253e-06 0
0 -5.40321e-06 0
0 -5.40321e-06 0
0 -7.3113e-06 0
0 -6.98147e-06 0
0 -4.8949e-06 0

