# vtk DataFile Version 4.2
vtk output
ASCII
DATASET UNSTRUCTURED_GRID

POINTS 343 double
0.00112294 0.00419484 1.12438e-07
0.00217185 0.00498227 0.00217553
0 0.00419538 0.00112517
0.00193001 0.00195421 0.0019423
0.00516731 0.00240453 0.00503361
0.0051703 0.00382803 0.00639901
0.00762249 0.00477096 0.00500222
0.00622566 0.00484747 0.00369391
0.00683298 0.00328477 0.0069167
0.00499114 0.00499077 0.00500108
0.00417535 0.00111624 0.0100004
0.00527657 0.00207768 0.00790581
0.00418526 -9.46151e-06 0.00831832
0.00201125 0.00200226 0.00803345
0.00428201 0.00253125 0.0100006
0.00695657 0.00644323 0.0069497
0.00641493 0.0061794 0.00518529
0.00225993 0.00218431 0.00514632
0 0.00143586 0.00417514
0.00159455 0.00346606 0.00403708
0.00683698 0.00319003 0.00316414
0.00774241 0.00220789 0.00506736
0 0.00270918 0.00154168
0.0041586 0.0014266 1.35797e-06
0.00500734 0.00218542 0.0021997
0.00396348 0.0035255 0.00160425
0.00134465 -6.89496e-07 0.00406011
0.0041817 -9.72479e-06 0.00168954
0.00262875 0.00695126 5.86153e-07
0.00193961 0.0080526 0.00194508
0.00409025 0.0062471 0.00164628
0.00800381 0.00798105 0.00800098
0.00796201 0.00481068 0.00802597
0.0083889 0.0060742 0.00595183
0.0100047 0.00881795 0.0041971
0.00758017 0.00763123 0.0049668
0.00857381 0.00997414 0.00417042
0.00798295 0.00796617 0.00201956
0.00353447 0.00303561 0.00696016
0.0044348 0.00366047 0.00832534
0.00388987 0.00159905 0.00596973
0.00500612 0.00766636 0.00767821
0.00198983 0.00800765 0.00798978
0.00282923 0.00999666 0.00712746
0.00391847 0.0083983 0.00595852
0 0.00695361 0.00262895
0.00164695 0.00623909 0.004088
0 0.0040177 0.00850214
0.00231474 0.00498545 0.00766173
0.00143274 0.00417436 0.01
0.00717335 0.0071141 0.010001
0.00611676 0.00596794 0.00841967
0.00205267 0.00794127 0.00474199
0.00304423 0.00694242 0.00646809
0.00158704 0.00607823 0.00592611
0.00998723 0.00577615 0.00831996
0 0.00718191 0.00711644
0.0015856 0.00577328 1.47359e-07
0 0.00577432 0.00158701
0.00999477 0.00714992 0.00711937
0.00286517 0.00334868 0.0100003
0.0099669 0.00140075 0.00417929
0.00803568 0.0019372 0.00198261
0.00838871 0.00349632 0.00400206
0.00372411 0.00164663 0.00412898
0.00151023 0.00999963 0.00581507
0.00280673 -4.51426e-06 0.0071281
0.00610663 0.00416853 0.00837814
0.00999664 0.00724196 0.00419943
0.00852367 -2.87011e-05 0.00417139
0.00334303 0.0028688 8.68115e-07
0.00269725 0.0015381 0.0100003
0.00281655 -4.91022e-06 0.00283242
0.00479658 0.0051925 0.00755558
0.00315804 0.0031456 0.00316781
0 0.00849157 0.00581511
0.00486458 0.00366767 0.00378745
0.00153746 0.00270857 1.11039e-07
0.00579933 0.00831318 0.0100005
0.00598713 0.0099863 0.00850718
0.0042157 0.00999254 0.00831845
0.00401761 0.00849688 0.01
0.010002 0.00845932 0.00581823
0.00314884 0.00683302 0.00315134
0 0.00748929 0.00137438
0.0013745 0.00748898 4.70716e-08
0 0.00287343 0.00335182
0 0.00580816 0.00831736
0 0.00429792 0.00253898
0.00253519 0.00429549 5.66061e-07
0.00143346 0.00581909 0.01
0.00517588 0.00646669 0.00640146
0.00360279 0.00650868 0.00823461
0.00692626 0.0026088 0.0100012
0.00799355 0.00193415 0.00803763
0.00693853 -2.11925e-05 0.00308457
0.00599877 0.00164904 0.00361472
0.00997454 0.00283948 0.00335619
0 0.00140616 0.00256446
0.0063755 0.00821349 0.0064224
0.00579682 0.00141992 2.59016e-06
0.00602316 0.00353791 0.00160552
0.0031594 0.00999559 0.0058256
0.0085676 0.00997432 0.00583557
0.00255432 0.00140224 6.28543e-07
0.00594788 -1.67701e-05 0.00149691
0.00628472 0.00827358 0.00361902
0.00851763 -2.84921e-05 0.00583619
0.00618257 0.00165701 0.00636676
0.0014015 0.00256401 0.0100001
0.00711764 0.00716385 2.96688e-06
0.0051694 0.00768021 0.0021704
0.00594001 0.00608126 0.00160401
0 0.00686719 0.00578184
0.00996749 0.00137081 0.00256914
0.00177191 0.00360973 0.006408
0.0100037 0.00845428 0.00262779
0.00840573 0.00616509 0.00413569
0.00599032 0.00998551 0.00149578
0.00693542 -2.09486e-05 0.00692821
0.00996612 0.00140058 0.00582324
0.00837693 0.00354831 0.00606351
0.00150097 -9.15464e-07 0.00581527
0 0.0013659 0.00748679
0.00136275 -8.0617e-07 0.00752893
0.00999378 0.00683514 0.00578505
0.00582212 0.00847848 2.15946e-06
0 0.0075208 0.00859127
0.00136492 0.00748633 0.00999997
0.00423396 0.00819892 0.00362896
0.00859964 0.00997413 0.0075142
0.010002 0.00859815 0.00752906
0.00574882 0.00157244 0.0100008
0.00724091 0.0041694 0.0100012
0 0.0057735 0.00666667
0.00137088 0.00999958 0.00752898
0 0.00863025 0.00752641
0.00855109 -2.92268e-05 0.0025113
0.00999577 0.00692124 0.00263312
0.00845467 0.00631751 0.00216626
0.00849707 0.00579953 0.0100016
0.00745811 0.00135184 0.0100013
0.00854956 -2.88344e-05 0.00751423
0.00996495 0.00133102 0.00748975
0 0.00143551 0.00581971
0.00594532 -1.63399e-05 0.00850691
0.00419052 -9.85045e-06 0.00340095
0.00792247 0.00468526 0.00203764
0.00998215 0.00426479 0.00254336
0.00423431 0.00999224 0.00666699
0.00283956 0.00999667 0.00283226
0.00130654 -7.43858e-07 0.00241838
0 0.00727418 0.00419576
0.0099877 0.0057414 0.00666967
0.00698437 0.00998133 0.00308363
0.00750858 0.00861694 0.0100012
0 0.00574334 0.00336387
0 0.0043297 0.00416652
0.00685926 0.00576798 0.0100011
0.00997355 0.0029887 0.00691837
0.00420188 -9.68376e-06 0.00666732
0.00248147 0.00999717 0.00861172
0.00745963 0.0013427 3.65565e-06
0.0057687 0.00665518 0.0100006
0.00999588 0.00748892 0.00859366
0.00860441 0.00752884 0.0100016
0.00689675 0.00300335 3.33796e-06
0.00336157 0.00573985 1.0434e-06
0.00753404 0.00860965 3.11851e-06
0.00752768 0.00997851 0.0013901
0.00578219 0.0068551 2.22586e-06
0.00697131 0.00635385 0.00303564
0.00748018 -2.42337e-05 0.00139121
0.00287886 0.00499663 0.0100003
0.00432335 0.00582748 0.0100004
0.00431838 0.00416021 0.0100005
0.00752428 0.00997916 0.00861747
0.00246213 -3.88078e-06 0.00861187
0.00998909 0.00571088 0.00336795
0 0.00302218 0.00691532
0.00997786 0.00398506 0.00850476
0.008486 0.00399167 4.18549e-06
0.00997461 0.00267479 0.0015465
0 0.00244495 0.00857025
0.00244574 0.00856764 0.00999996
0.00747706 -2.37773e-05 0.00861716
0.00845919 0.00259783 0.0100016
0.00883044 0.00416713 0.0100017
0.00567922 0.00998709 0.0058342
0.00518704 0.00757386 0.00503326
0.00565226 0.00998703 0.0042163
0.00698114 0.00998173 0.00692786
0.00301971 0.00691294 0.0100001
0.00415956 0.00432346 1.63259e-06
0.00281932 -5.12466e-06 0.00440514
0.00313486 -5.74247e-06 0.00582599
0.00998234 0.00416193 0.00112997
0.00364131 0.00833216 0.0015892
0.00998154 0.00429677 0.00417051
0.00666143 0.00575753 2.98314e-06
0.00860145 0.00997372 0.00251013
0 0.00848692 0.00262374
0.00135292 0.00999958 0.00405992
0 0.00885053 0.00419359
0.00420013 0.00884284 1.40113e-06
0.00421382 0.00999196 0.00168876
0.00499135 0.00478276 0.00238035
0.00720766 0.00450244 3.41761e-06
0.00561255 -1.54219e-05 0.00421718
0.00563956 -1.5376e-05 0.00583464
0.00131464 0.00999959 0.00241807
0.00854614 0.00241753 4.31931e-06
0.00998104 0.00448922 0.00722249
0.00712555 0.00998094 0.0050019
0.00572537 0.00335156 0.0100008
0.00244454 -3.91131e-06 0.00135711
0.00996982 0.00241096 0.00857296
0.00239186 0.00478947 0.00500019
0.0058226 0.00431723 2.6979e-06
0.00831056 0.00578394 3.86676e-06
0.00548751 0.00998806 0.00722128
0.00998068 0.00429739 0.00583673
0.00541302 0.00998782 0.00277679
0.00707922 -2.16294e-05 0.00500267
0.00284162 0.00999669 0.00440462
0 0.00452174 0.00721958
0.00451897 0.00721314 0.0100003
0.00544858 -1.43847e-05 0.00722114
0.0035986 0.0050697 0.00359708
0.00425988 0.00999213 0.00500868
0.00422655 -9.87631e-06 0.00500934
0.00366602 0.00521268 0.00617506
0 0.005744 0.00499998
0 0.00433013 0.00583333
0.0049963 0.00573556 2.12263e-06
0.00498229 0.0063307 0.00355492
0.00537395 -1.45281e-05 0.00277787
0.00998832 0.00571176 0.00500354
0.00368872 0.00640364 0.00484436
0.00573265 0.00498894 0.0100008
0.00999016 0.00574162 0.00159156
0 0.00666667 0
0.00859284 0.0074954 3.76138e-06
0.0033157 -7.65126e-06 1.79603e-06
0 0.01 0.00666667
0.00500703 0.00998941 0.0100007
0 0.00288419 0.00499914
0.00999917 0.0074568 0.00137885
0.00999564 0.00663399 4.71491e-06
0 0.005 0.01
0.00498459 0.00287366 2.02187e-06
0 0.005 0
0.00995994 -3.6327e-05 0.00333793
0.0100094 0.00996695 0.00666939
0.00419731 0.00726783 1.47225e-06
0.00997368 0.00285052 0.00500294
0.00497501 -1.37103e-05 2.6701e-06
0 0 0.00666667
0.00378965 0.00361172 0.00522685
0.00497196 -1.30724e-05 0.0100002
0.00995838 -3.60015e-05 0.00666987
0 0 0.005
0.00879324 0.00997257 0.00122356
0.0100059 0.00874693 0.00122442
0.00995912 -3.60904e-05 0.00500393
0.00998706 0.00496677 4.94106e-06
0.00121563 0.00121907 2.84883e-08
0 0.00122008 0.00122008
0 0.00333333 0.01
0 0.00666667 0.01
0.0087877 0.00875303 3.68885e-06
0.0100111 0.00996658 0.00333692
0.00422365 0.00999206 0.00340019
0.0099908 0.00663491 0.0100024
0 0.00333333 0
0 0.00122008 0.00877992
0.00121396 -1.03381e-06 0.00877972
0.00121532 0.0012194 0.0100002
0.00878944 0.00997311 0.00878196
0.00121996 0.00877933 0.00999995
0 0.00877992 0.00877992
0.0100023 0.00874768 0.00878234
0.00668032 0.00998223 2.24182e-06
0.00996712 0.00118432 0.00122516
0.00122133 0.00999936 0.00878027
0.00878295 0.00875372 0.0100018
0.0099822 0.00496774 0.0100024
0 0 0.00333333
0.00663526 -2.05476e-05 3.75165e-06
0.00874263 -3.05078e-05 0.00122481
0.00120562 -1.01196e-06 0.00121228
0 0.00877992 0.00122008
0.00122103 0.00877936 1.59946e-07
0.00121341 0.0099994 0.00121147
0.00996352 0.00118498 0.0087824
0.00874461 0.00119102 0.0100016
0.0066315 -1.98947e-05 0.0100005
0.00874929 0.00119033 4.58095e-06
0.00873915 -2.99443e-05 0.00878154
0.00997861 0.00329925 5.1021e-06
0.00333851 0.00999436 0.0100006
0.00246472 0.00999733 0.00135667
0.00667578 0.00998288 0.0100013
0.00997366 0.00330031 0.0100024
0 0.01 0.005
0.00262703 0.00848419 6.43478e-07
0.0100102 0.00996677 0.0050032
0 0.01 0.00333333
0 0.00166667 0
0.00996076 -3.66376e-05 0.00167186
0 0.00166667 0.01
0 0.00833333 0
0.0100043 0.00830039 4.42933e-06
0.00995762 -3.61221e-05 0.00833578
0.0100119 0.00996635 0.00167077
0.0100086 0.00996697 0.00833591
0.00166931 0.00999816 0.0100002
0 0.01 0.00833333
0.00834745 0.00997453 3.28387e-06
0.00829768 -2.86774e-05 4.5912e-06
0.00829321 -2.80602e-05 0.0100012
0.00834247 0.00997501 0.0100017
0 0 0.00833333
0.00999947 0.00830122 0.0100023
0.00165736 -2.60919e-06 5.08182e-07
0 0 0.00166667
0.00334229 0.00999468 8.59156e-07
0.00996519 0.00163177 0.0100023
0.00997003 0.00163108 5.22526e-06
0.00165716 -2.18054e-06 0.0100002
0.00167069 0.00999855 2.82007e-07
0 0.01 0.00166667
0.010008 0.00996691 0.0100025
0 0 0.01
0.0100128 0.0099662 4.13134e-06
0.00995678 -3.62164e-05 0.0100019
0 0.01 0.01
0.00996152 -3.69514e-05 5.53138e-06
0 0.01 0
0 0 0
0.00501173 0.00998885 1.50132e-06
0.00331372 -6.81895e-06 0.00999992
0 0.00833333 0.01

CELLS 343 686
1 0
1 1
1 2
1 3
1 4
1 5
1 6
1 7
1 8
1 9
1 10
1 11
1 12
1 13
1 14
1 15
1 16
1 17
1 18
1 19
1 20
1 21
1 22
1 23
1 24
1 25
1 26
1 27
1 28
1 29
1 30
1 31
1 32
1 33
1 34
1 35
1 36
1 37
1 38
1 39
1 40
1 41
1 42
1 43
1 44
1 45
1 46
1 47
1 48
1 49
1 50
1 51
1 52
1 53
1 54
1 55
1 56
1 57
1 58
1 59
1 60
1 61
1 62
1 63
1 64
1 65
1 66
1 67
1 68
1 69
1 70
1 71
1 72
1 73
1 74
1 75
1 76
1 77
1 78
1 79
1 80
1 81
1 82
1 83
1 84
1 85
1 86
1 87
1 88
1 89
1 90
1 91
1 92
1 93
1 94
1 95
1 96
1 97
1 98
1 99
1 100
1 101
1 102
1 103
1 104
1 105
1 106
1 107
1 108
1 109
1 110
1 111
1 112
1 113
1 114
1 115
1 116
1 117
1 118
1 119
1 120
1 121
1 122
1 123
1 124
1 125
1 126
1 127
1 128
1 129
1 130
1 131
1 132
1 133
1 134
1 135
1 136
1 137
1 138
1 139
1 140
1 141
1 142
1 143
1 144
1 145
1 146
1 147
1 148
1 149
1 150
1 151
1 152
1 153
1 154
1 155
1 156
1 157
1 158
1 159
1 160
1 161
1 162
1 163
1 164
1 165
1 166
1 167
1 168
1 169
1 170
1 171
1 172
1 173
1 174
1 175
1 176
1 177
1 178
1 179
1 180
1 181
1 182
1 183
1 184
1 185
1 186
1 187
1 188
1 189
1 190
1 191
1 192
1 193
1 194
1 195
1 196
1 197
1 198
1 199
1 200
1 201
1 202
1 203
1 204
1 205
1 206
1 207
1 208
1 209
1 210
1 211
1 212
1 213
1 214
1 215
1 216
1 217
1 218
1 219
1 220
1 221
1 222
1 223
1 224
1 225
1 226
1 227
1 228
1 229
1 230
1 231
1 232
1 233
1 234
1 235
1 236
1 237
1 238
1 239
1 240
1 241
1 242
1 243
1 244
1 245
1 246
1 247
1 248
1 249
1 250
1 251
1 252
1 253
1 254
1 255
1 256
1 257
1 258
1 259
1 260
1 261
1 262
1 263
1 264
1 265
1 266
1 267
1 268
1 269
1 270
1 271
1 272
1 273
1 274
1 275
1 276
1 277
1 278
1 279
1 280
1 281
1 282
1 283
1 284
1 285
1 286
1 287
1 288
1 289
1 290
1 291
1 292
1 293
1 294
1 295
1 296
1 297
1 298
1 299
1 300
1 301
1 302
1 303
1 304
1 305
1 306
1 307
1 308
1 309
1 310
1 311
1 312
1 313
1 314
1 315
1 316
1 317
1 318
1 319
1 320
1 321
1 322
1 323
1 324
1 325
1 326
1 327
1 328
1 329
1 330
1 331
1 332
1 333
1 334
1 335
1 336
1 337
1 338
1 339
1 340
1 341
1 342

CELL_TYPES 343
1
1
1
1
1
1
1
1
1
1
1
1
1
1
1
1
1
1
1
1
1
1
1
1
1
1
1
1
1
1
1
1
1
1
1
1
1
1
1
1
1
1
1
1
1
1
1
1
1
1
1
1
1
1
1
1
1
1
1
1
1
1
1
1
1
1
1
1
1
1
1
1
1
1
1
1
1
1
1
1
1
1
1
1
1
1
1
1
1
1
1
1
1
1
1
1
1
1
1
1
1
1
1
1
1
1
1
1
1
1
1
1
1
1
1
1
1
1
1
1
1
1
1
1
1
1
1
1
1
1
1
1
1
1
1
1
1
1
1
1
1
1
1
1
1
1
1
1
1
1
1
1
1
1
1
1
1
1
1
1
1
1
1
1
1
1
1
1
1
1
1
1
1
1
1
1
1
1
1
1
1
1
1
1
1
1
1
1
1
1
1
1
1
1
1
1
1
1
1
1
1
1
1
1
1
1
1
1
1
1
1
1
1
1
1
1
1
1
1
1
1
1
1
1
1
1
1
1
1
1
1
1
1
1
1
1
1
1
1
1
1
1
1
1
1
1
1
1
1
1
1
1
1
1
1
1
1
1
1
1
1
1
1
1
1
1
1
1
1
1
1
1
1
1
1
1
1
1
1
1
1
1
1
1
1
1
1
1
1
1
1
1
1
1
1
1
1
1
1
1
1
1
1
1
1
1
1
1
1
1
1
1
1
1
1
1
1
1
1
1
1
1
1
1
1
1
1
1
1
1
1
1
1
1
1
1
1
1
1
1
1
1
1

POINT_DATA 343
FIELD FieldData 3

ExternalForceID_(#) 1 343 int
0
1
2
3
4
5
6
7
8
9
10
11
12
13
14
15
16
17
18
19
20
21
22
23
24
25
26
27
28
29
30
31
32
33
34
35
36
37
38
39
40
41
42
43
44
45
46
47
48
49
50
51
52
53
54
55
56
57
58
59
60
61
62
63
64
65
66
67
68
69
70
71
72
73
74
75
76
77
78
79
80
81
82
83
84
85
86
87
88
89
90
91
92
93
94
95
96
97
98
99
100
101
102
103
104
105
106
107
108
109
110
111
112
113
114
115
116
117
118
119
120
121
122
123
124
125
126
127
128
129
130
131
132
133
134
135
136
137
138
139
140
141
142
143
144
145
146
147
148
149
150
151
152
153
154
155
156
157
158
159
160
161
162
163
164
165
166
167
168
169
170
171
172
173
174
175
176
177
178
179
180
181
182
183
184
185
186
187
188
189
190
191
192
193
194
195
196
197
198
199
200
201
202
203
204
205
206
207
208
209
210
211
212
213
214
215
216
217
218
219
220
221
222
223
224
225
226
227
228
229
230
231
232
233
234
235
236
237
238
239
240
241
242
243
244
245
246
247
248
249
250
251
252
253
254
255
256
257
258
259
260
261
262
263
264
265
266
267
268
269
270
271
272
273
274
275
276
277
278
279
280
281
282
283
284
285
286
287
288
289
290
291
292
293
294
295
296
297
298
299
300
301
302
303
304
305
306
307
308
309
310
311
312
313
314
315
316
317
318
319
320
321
322
323
324
325
326
327
328
329
330
331
332
333
334
335
336
337
338
339
340
341
342

ExternalForceType_(0/1/2/3/4) 1 343 int
0
0
0
0
0
0
0
0
0
0
0
0
0
0
0
0
0
0
0
0
0
0
0
0
0
0
0
0
0
0
0
0
0
0
0
0
0
0
0
0
0
0
0
0
0
0
0
0
0
0
0
0
0
0
0
0
0
0
0
0
0
0
0
0
0
0
0
0
0
0
0
0
0
0
0
0
0
0
0
0
0
0
0
0
0
0
0
0
0
0
0
0
0
0
0
0
0
0
0
0
0
0
0
0
0
0
0
0
0
0
0
0
0
0
0
0
0
0
0
0
0
0
0
0
0
0
0
0
0
0
0
0
0
0
0
0
0
0
0
0
0
0
0
0
0
0
0
0
0
0
0
0
0
0
0
0
0
0
0
0
0
0
0
0
0
0
0
0
0
0
0
0
0
0
0
0
0
0
0
0
0
0
0
0
0
0
0
0
0
0
0
0
0
0
0
0
0
0
0
0
0
0
0
0
0
0
0
0
0
0
0
0
0
0
0
0
0
0
0
0
0
0
0
0
0
0
0
0
0
0
0
0
0
0
0
0
0
0
0
0
0
0
0
0
0
0
0
0
0
0
0
0
0
0
0
0
0
0
0
0
0
0
0
0
0
0
0
0
0
0
0
0
0
0
0
0
0
0
0
0
0
0
0
0
0
0
0
0
0
0
0
0
0
0
0
0
0
0
0
0
0
0
0
0
0
0
0
0
0
0
0
0
0
0
0
0
0
0
0
0
0
0
0
0
0
0
0
0
0
0
0
0
0
0
0
0
0
0
0
0
0
0
0

ExternalForce_(N) 3 343 double
0 -3.09568e-05 0
0 -0.000138619 0
0 -2.16714e-05 0
0 -0.000168226 0
0 -8.26002e-05 0
0 -8.9203e-05 0
0 -9.74165e-05 0
0 -7.37906e-05 0
0 -6.68156e-05 0
0 -5.47617e-05 0
0 -3.04981e-05 0
0 -0.000105531 0
0 -4.77758e-05 0
0 -0.000161821 0
0 -2.96713e-05 0
0 -7.9067e-05 0
0 -6.57564e-05 0
0 -0.000106704 0
0 -4.11017e-05 0
0 -8.006e-05 0
0 -6.02474e-05 0
0 -0.000115662 0
0 -2.18875e-05 0
0 -4.17098e-05 0
0 -0.000107827 0
0 -7.27379e-05 0
0 -4.13856e-05 0
0 -3.85027e-05 0
0 -3.029e-05 0
0 -0.000128774 0
0 -7.57947e-05 0
0 -0.000162261 0
0 -0.000116775 0
0 -7.15802e-05 0
0 -3.74431e-05 0
0 -0.000108892 0
0 -3.74072e-05 0
0 -0.000136493 0
0 -6.25303e-05 0
0 -7.85756e-05 0
0 -7.52544e-05 0
0 -0.000116589 0
0 -0.000160874 0
0 -2.73339e-05 0
0 -8.7662e-05 0
0 -2.53184e-05 0
0 -7.42972e-05 0
0 -4.15199e-05 0
0 -0.000128792 0
0 -3.72945e-05 0
0 -2.72189e-05 0
0 -7.03157e-05 0
0 -0.000119003 0
0 -5.02041e-05 0
0 -8.04153e-05 0
0 -4.4939e-05 0
0 -2.74192e-05 0
0 -3.19929e-05 0
0 -4.04607e-05 0
0 -2.07889e-05 0
0 -3.28809e-05 0
0 -3.54797e-05 0
0 -0.000153858 0
0 -7.19739e-05 0
0 -8.09026e-05 0
0 -4.90862e-05 0
0 -2.77255e-05 0
0 -7.06591e-05 0
0 -3.20606e-05 0
0 -4.10794e-05 0
0 -1.98932e-05 0
0 -2.37551e-05 0
0 -3.0591e-05 0
0 -5.86107e-05 0
0 -5.75946e-05 0
0 -4.01595e-05 0
0 -5.35099e-05 0
0 -2.24477e-05 0
0 -4.41213e-05 0
0 -4.29866e-05 0
0 -4.42325e-05 0
0 -4.30889e-05 0
0 -4.19155e-05 0
0 -5.21923e-05 0
0 -1.5029e-05 0
0 -2.34331e-05 0
0 -1.9903e-05 0
0 -4.30461e-05 0
0 -3.11931e-05 0
0 -3.08326e-05 0
0 -4.52797e-05 0
0 -5.7648e-05 0
0 -8.02544e-05 0
0 -2.43623e-05 0
0 -0.000150893 0
0 -3.43039e-05 0
0 -7.21258e-05 0
0 -1.97489e-05 0
0 -2.00202e-05 0
0 -7.83017e-05 0
0 -4.32908e-05 0
0 -7.00326e-05 0
0 -1.17841e-05 0
0 -4.93779e-05 0
0 -1.58193e-05 0
0 -4.04762e-05 0
0 -8.57147e-05 0
0 -4.2953e-05 0
0 -7.82027e-05 0
0 -2.09499e-05 0
0 -3.31713e-05 0
0 -9.30599e-05 0
0 -7.26197e-05 0
0 -1.76801e-05 0
0 -2.06228e-05 0
0 -7.8371e-05 0
0 -1.84411e-05 0
0 -7.30662e-05 0
0 -4.11806e-05 0
0 -2.3265e-05 0
0 -4.23503e-05 0
0 -5.94919e-05 0
0 -4.22718e-05 0
0 -2.12723e-05 0
0 -1.86252e-05 0
0 -1.77849e-05 0
0 -3.82356e-05 0
0 -2.39658e-05 0
0 -1.62481e-05 0
0 -7.86148e-05 0
0 -1.61387e-05 0
0 -2.34763e-05 0
0 -2.95637e-05 0
0 -2.93742e-05 0
0 -1.33947e-05 0
0 -1.83735e-05 0
0 -2.05639e-05 0
0 -1.91062e-05 0
0 -1.84053e-05 0
0 -6.25793e-05 0
0 -4.49914e-05 0
0 -1.98914e-05 0
0 -1.58922e-05 0
0 -2.367e-05 0
0 -3.81266e-05 0
0 -4.36518e-05 0
0 -2.25472e-05 0
0 -0.000115119 0
0 -3.05886e-05 0
0 -1.32828e-05 0
0 -3.38507e-05 0
0 -1.78391e-05 0
0 -2.88237e-05 0
0 -1.34771e-05 0
0 -2.36876e-05 0
0 -2.06453e-05 0
0 -2.58912e-05 0
0 -2.10097e-05 0
0 -1.7602e-05 0
0 -3.13896e-05 0
0 -1.34386e-05 0
0 -2.38863e-05 0
0 -2.04203e-05 0
0 -1.33426e-05 0
0 -2.13076e-05 0
0 -1.86316e-05 0
0 -3.10974e-05 0
0 -2.56228e-05 0
0 -2.33161e-05 0
0 -1.57181e-05 0
0 -1.87061e-05 0
0 -5.38771e-05 0
0 -1.84308e-05 0
0 -3.08341e-05 0
0 -2.91652e-05 0
0 -1.16203e-05 0
0 -1.85667e-05 0
0 -2.00287e-05 0
0 -2.68375e-05 0
0 -2.37799e-05 0
0 -3.16945e-05 0
0 -3.13676e-05 0
0 -3.15313e-05 0
0 -1.90796e-05 0
0 -1.58134e-05 0
0 -1.83326e-05 0
0 -3.16308e-05 0
0 -2.07128e-05 0
0 -2.91276e-05 0
0 -6.03597e-05 0
0 -2.26581e-05 0
0 -2.35174e-05 0
0 -2.33506e-05 0
0 -2.59482e-05 0
0 -1.63393e-05 0
0 -1.78912e-05 0
0 -2.02658e-05 0
0 -5.62379e-05 0
0 -2.04507e-05 0
0 -2.14176e-05 0
0 -2.38895e-05 0
0 -3.05955e-05 0
0 -3.11287e-05 0
0 -2.01544e-05 0
0 -1.92198e-05 0
0 -2.99909e-05 0
0 -6.32085e-05 0
0 -2.04829e-05 0
0 -2.67435e-05 0
0 -2.11611e-05 0
0 -1.83262e-05 0
0 -1.96474e-05 0
0 -2.0699e-05 0
0 -2.83503e-05 0
0 -2.27807e-05 0
0 -2.35234e-05 0
0 -1.93874e-05 0
0 -6.29086e-05 0
0 -2.12117e-05 0
0 -3.22943e-05 0
0 -2.06229e-05 0
0 -2.61501e-05 0
0 -1.90721e-05 0
0 -2.86319e-05 0
0 -2.53212e-05 0
0 -2.07681e-05 0
0 -2.05553e-05 0
0 -1.88077e-05 0
0 -6.92631e-05 0
0 -2.20924e-05 0
0 -2.02457e-05 0
0 -6.16224e-05 0
0 -2.08117e-05 0
0 -2.85397e-05 0
0 -2.08875e-05 0
0 -6.32617e-05 0
0 -1.39008e-05 0
0 -2.0289e-05 0
0 -6.45558e-05 0
0 -2.47785e-05 0
0 -2.35177e-05 0
0 -7.28089e-06 0
0 -2.18143e-05 0
0 -6.93323e-06 0
0 -6.87344e-06 0
0 -8.76768e-06 0
0 -2.48719e-05 0
0 -2.22231e-05 0
0 -1.31068e-05 0
0 -7.69816e-06 0
0 -2.27889e-05 0
0 -5.95166e-06 0
0 -6.55579e-06 0
0 -6.71305e-06 0
0 -2.46468e-05 0
0 -2.27228e-05 0
0 -7.6878e-06 0
0 -6.67903e-06 0
0 -6.10861e-05 0
0 -6.6189e-06 0
0 -6.52665e-06 0
0 -6.87836e-06 0
0 -1.78856e-05 0
0 -1.87072e-05 0
0 -6.73674e-06 0
0 -6.91401e-06 0
0 -1.82903e-05 0
0 -2.2423e-05 0
0 -6.67521e-06 0
0 -7.02401e-06 0
0 -1.78908e-05 0
0 -5.89658e-06 0
0 -1.98938e-05 0
0 -7.3162e-06 0
0 -5.63509e-06 0
0 -1.76631e-05 0
0 -1.42638e-05 0
0 -2.22707e-05 0
0 -1.77204e-05 0
0 -2.11264e-05 0
0 -1.75686e-05 0
0 -1.76047e-05 0
0 -6.69346e-06 0
0 -2.20467e-05 0
0 -1.42479e-05 0
0 -1.76144e-05 0
0 -6.84615e-06 0
0 -6.12404e-06 0
0 -6.50125e-06 0
0 -1.41879e-05 0
0 -1.37476e-05 0
0 -2.11168e-05 0
0 -1.79377e-05 0
0 -1.37282e-05 0
0 -1.41198e-05 0
0 -2.15061e-05 0
0 -6.84475e-06 0
0 -1.74349e-05 0
0 -1.75758e-05 0
0 -6.41828e-06 0
0 -7.20025e-06 0
0 -2.30432e-05 0
0 -6.96894e-06 0
0 -6.44499e-06 0
0 -6.14414e-06 0
0 -2.14766e-05 0
0 -6.00855e-06 0
0 -5.92427e-06 0
0 -5.81567e-06 0
0 -5.02303e-06 0
0 -5.01945e-06 0
0 -4.85271e-06 0
0 -4.87573e-06 0
0 -4.8684e-06 0
0 -5.22951e-06 0
0 -4.84801e-06 0
0 -4.88396e-06 0
0 -4.77612e-06 0
0 -4.81304e-06 0
0 -4.85251e-06 0
0 -4.8555e-06 0
0 -4.82575e-06 0
0 -4.80313e-06 0
0 -4.86923e-06 0
0 -4.85781e-06 0
0 -4.73027e-06 0
0 -1.08748e-05 0
0 -5.22863e-06 0
0 -5.34413e-06 0
0 -5.26459e-06 0
0 -5.05624e-06 0
0 -4.92238e-06 0
0 -5.43253e-06 0
0 -5.43253e-06 0
0 -5.43253e-06 0
0 -5.43253e-06 0
0 -5.43253e-06 0
0 -5.43253e-06 0
0 -5.40321e-06 0
0 -5.40321e-06 0
0 -7.3113e-06 0
0 -6.98147e-06 0
0 -4.8949e-06 0

