# vtk DataFile Version 4.2
vtk output
ASCII
DATASET UNSTRUCTURED_GRID

POINTS 343 double
0.00151628 0.00421197 -1.77318e-05
0.00293267 0.005016 0.00214462
0 0.00419538 0.00112517
0.00261272 0.00198181 0.00191397
0.0068395 0.00244787 0.00498855
0.00682927 0.00389532 0.00639451
0.00987422 0.00488435 0.0049559
0.00816381 0.00494271 0.00360079
0.00889417 0.0033583 0.00694708
0.00661217 0.00506991 0.00495482
0.00546017 0.00114869 0.0100328
0.00693377 0.00211984 0.0079354
0.00550536 7.63548e-06 0.00833357
0.00270272 0.00202869 0.00800981
0.00560354 0.00257369 0.0100342
0.00902031 0.0065826 0.00698657
0.00837846 0.00630304 0.00514426
0.00304628 0.00221339 0.00512088
0 0.00143586 0.00417514
0.00215599 0.00348811 0.00401656
0.00892019 0.00325673 0.00304523
0.0100314 0.00226173 0.00502407
0 0.00270918 0.00154168
0.00548749 0.00145647 -0.000103866
0.00661914 0.00222731 0.00209486
0.00526858 0.00357772 0.00151846
0.00181735 1.61208e-05 0.00404434
0.00553288 5.74466e-06 0.00160376
0.00349339 0.006994 -5.9576e-05
0.00260864 0.00808218 0.00191615
0.00542387 0.00631849 0.00155719
0.0102453 0.00818395 0.00809697
0.0102417 0.00493593 0.00812291
0.0107496 0.00624096 0.00594945
0.0125493 0.00909738 0.00411234
0.00977787 0.00781571 0.0049165
0.010894 0.0102609 0.00408556
0.0102492 0.00817418 0.00184476
0.00471234 0.00308183 0.00693871
0.00584566 0.00371768 0.00834454
0.00518949 0.00163074 0.00594197
0.0065553 0.00776679 0.00769642
0.0026672 0.00803432 0.00796842
0.00374078 0.010059 0.00710164
0.00519047 0.00847714 0.00592761
0 0.00695361 0.00262895
0.00222053 0.00626421 0.00406469
0 0.0040177 0.00850214
0.00310574 0.00502116 0.00763786
0.00191579 0.00419592 0.00998336
0.00918752 0.00727413 0.0101285
0.00795213 0.00607976 0.008483
0.00276087 0.00797025 0.00471487
0.00406871 0.00698845 0.00643519
0.00213581 0.00610218 0.00590652
0.012548 0.00596321 0.00844977
0 0.00718191 0.00711644
0.00213237 0.00579822 -2.74095e-05
0 0.00577432 0.00158701
0.0125496 0.00738557 0.00719551
0.00376857 0.00338657 0.0100072
0.0125919 0.00144208 0.00409337
0.0103873 0.0019815 0.00180223
0.0107929 0.0035915 0.00390661
0.00498206 0.00167767 0.00408625
0.00202566 0.0100245 0.00579559
0.00374309 1.36932e-05 0.00710243
0.00795813 0.00425153 0.00843734
0.0125788 0.00749865 0.00411712
0.0109508 -4.22676e-05 0.00408657
0.00443689 0.002911 -8.09439e-05
0.00354835 0.00156568 0.0100056
0.00377005 9.86351e-06 0.00279599
0.0063208 0.00526586 0.00757089
0.00424023 0.00318844 0.00312857
0 0.00849157 0.00581511
0.00645295 0.0037289 0.00371964
0.00207492 0.00273297 -2.66429e-05
0.00746352 0.00844362 0.0100934
0.00770108 0.0101524 0.00857471
0.00549414 0.0100931 0.00833437
0.00522346 0.00857398 0.0100376
0.0125456 0.00872941 0.0058238
0.00421537 0.00688331 0.0031097
0 0.00748929 0.00137438
0.00184646 0.00750834 -2.21846e-05
0 0.00287343 0.00335182
0 0.00580816 0.00831736
0 0.00429792 0.00253898
0.00338284 0.00433476 -5.75798e-05
0.00191397 0.00583867 0.00998435
0.00681197 0.0065619 0.00639193
0.0047614 0.00656523 0.00823981
0.00892367 0.00266288 0.01011
0.0102919 0.00197981 0.00813177
0.00903332 -1.7092e-05 0.00296133
0.00787934 0.00168369 0.00352068
0.0125963 0.00292567 0.00322419
0 0.00140616 0.00256446
0.00827913 0.00836256 0.00642924
0.00757784 0.00144882 -0.000158034
0.00789083 0.00360431 0.00146081
0.00418074 0.0100662 0.00579672
0.0108791 0.010258 0.00583075
0.00340175 0.00142642 -5.80118e-05
0.00777996 -1.40341e-05 0.00135695
0.00817623 0.00842416 0.00352656
0.010935 -4.06519e-05 0.00583819
0.00809794 0.00169427 0.00637203
0.00187633 0.00258452 0.00998428
0.00918253 0.00733044 -0.000196784
0.0067917 0.00779067 0.00206003
0.00777254 0.0061944 0.00146072
0 0.00686719 0.00578184
0.0125891 0.00140795 0.00240411
0.00238795 0.00363551 0.00638633
0.0125525 0.00872831 0.00246564
0.0107866 0.00633139 0.00404831
0.00774779 0.0101614 0.00135007
0.00900149 -2.16747e-05 0.00696677
0.0125805 0.00144573 0.00583622
0.0107586 0.00364011 0.00607372
0.00202065 1.78481e-05 0.00579697
0 0.0013659 0.00748679
0.00183127 1.44881e-05 0.00750837
0.0125753 0.00707069 0.00578327
0.00755689 0.00862085 -0.00016838
0 0.0075208 0.00859127
0.00182113 0.00750094 0.00998719
0.0056106 0.00828731 0.00356772
0.0108922 0.010255 0.00759548
0.0125176 0.00887267 0.0076266
0.00746126 0.00161019 0.0100815
0.00930994 0.00426289 0.010122
0 0.0057735 0.00666667
0.00183574 0.0100234 0.00750879
0 0.00863025 0.00752641
0.0109801 -4.27981e-05 0.00235117
0.0125808 0.00717045 0.00247178
0.0108407 0.00649872 0.00198904
0.0108206 0.00595775 0.0101651
0.00957441 0.00139281 0.0101293
0.0109458 -4.00174e-05 0.0075949
0.0125539 0.00137177 0.00758533
0 0.00143551 0.00581971
0.007743 -1.08355e-05 0.00856898
0.00556477 1.64626e-06 0.0033356
0.0102347 0.00480671 0.00186084
0.0125946 0.00439547 0.00236638
0.00554832 0.0100999 0.00665475
0.0037656 0.0100604 0.00279205
0.00176698 1.46472e-05 0.002402
0 0.00727418 0.00419576
0.012571 0.00592116 0.00672161
0.00897487 0.0101979 0.00296254
0.00956672 0.00880723 0.010139
0 0.00574334 0.00336387
0 0.0043297 0.00416652
0.00882133 0.00588624 0.010119
0.0125717 0.00307518 0.00698851
0.00556388 2.58477e-06 0.00665841
0.0032683 0.010053 0.00860305
0.00964289 0.00137401 -0.000201995
0.00745829 0.00676278 0.0100888
0.0125204 0.00772779 0.0087359
0.0109143 0.00773348 0.0101715
0.00895844 0.00306215 -0.000186741
0.00445666 0.0057953 -8.13384e-05
0.00965934 0.00881563 -0.000207237
0.00962197 0.0102233 0.00121247
0.00753845 0.0069745 -0.000163692
0.00905309 0.00649938 0.00291185
0.0096827 -2.67502e-05 0.0012121
0.00378578 0.00503448 0.0100093
0.00564578 0.00588896 0.0100466
0.00564881 0.00421422 0.0100426
0.00958634 0.0102082 0.00872474
0.00326978 9.99872e-06 0.00859875
0.0125974 0.00588445 0.00323487
0 0.00302218 0.00691532
0.0125504 0.00410144 0.00864026
0.0108694 0.00409403 -0.000238688
0.0125903 0.00275734 0.00132717
0 0.00244495 0.00857025
0.0032063 0.00860788 0.0100071
0.00963056 -2.32538e-05 0.00871969
0.0107923 0.00266188 0.0101605
0.0112175 0.00427843 0.0101719
0.00738351 0.0101457 0.0058223
0.00682445 0.00768068 0.00499203
0.00735767 0.0101478 0.00414871
0.00895716 0.0101908 0.00696564
0.00396154 0.00695548 0.0100163
0.00549839 0.00438485 -0.000108479
0.00377498 1.3309e-05 0.00437295
0.00418714 1.15731e-05 0.00579902
0.012583 0.00428997 0.000894196
0.00481601 0.00840603 0.00151292
0.0125989 0.00443319 0.00409103
0.0086487 0.00587885 -0.000186425
0.0109219 0.0102647 0.00235516
0 0.00848692 0.00262374
0.00181622 0.0100206 0.00404203
0 0.00885053 0.00419359
0.00549989 0.00893789 -0.00011208
0.00552665 0.0101006 0.00159859
0.00660425 0.00485932 0.00227741
0.00933449 0.00460586 -0.000199782
0.0073848 -6.96608e-06 0.00414331
0.00741247 -6.89611e-06 0.00582066
0.00176425 0.0100209 0.00240064
0.0109526 0.00247871 -0.000239526
0.0125669 0.00462874 0.00730819
0.00914408 0.0102037 0.00495767
0.00743688 0.00341468 0.0100766
0.00327014 7.53304e-06 0.00131402
0.0125419 0.00248045 0.00871107
0.00321653 0.00482628 0.00497067
0.00761005 0.00439378 -0.00016081
0.0106469 0.00595083 -0.000229068
0.00711829 0.0101358 0.00723411
0.0125851 0.00443285 0.00584455
0.00705061 0.0101397 0.00267748
0.00919987 -2.33001e-05 0.00495407
0.00377135 0.0100588 0.00436694
0 0.00452174 0.00721958
0.0058775 0.00729597 0.0100534
0.00714802 -5.02124e-06 0.00724044
0.00482038 0.00512633 0.00354902
0.00560347 0.0101051 0.0049676
0.00561712 -1.781e-06 0.00497027
0.00489533 0.00526883 0.00614328
0 0.005744 0.00499998
0 0.00433013 0.00583333
0.00655938 0.00582235 -0.000137397
0.00658704 0.00642113 0.00347766
0.00706999 -5.38709e-06 0.00267969
0.0125918 0.00587946 0.00496745
0.00492898 0.00646432 0.00480131
0.00743722 0.00507187 0.010081
0.0125864 0.00592261 0.00136972
0 0.00666667 0
0.0109419 0.00770881 -0.000237133
0.00438703 -9.27408e-07 -7.14375e-05
0 0.01 0.00666667
0.00643572 0.0101237 0.0100625
0 0.00288419 0.00499914
0.0125634 0.00772101 0.00114712
0.0125566 0.00685446 -0.000261418
0 0.005 0.01
0.00655263 0.00292138 -0.000133158
0 0.005 0
0.0125601 -7.3236e-05 0.00320864
0.012479 0.0103156 0.00672591
0.00552079 0.00734914 -0.000112273
0.0125931 0.00292795 0.00496683
0.00652015 -1.56629e-05 -0.000119122
0 0 0.00666667
0.0050716 0.00366327 0.0051891
0.00646408 -1.94208e-06 0.0100542
0.0125374 -6.96557e-05 0.00672887
0 0 0.005
0.0111258 0.010276 0.0010129
0.0125368 0.00903891 0.000990426
0.012554 -7.13051e-05 0.00497125
0.0125605 0.00512541 -0.000267463
0.0016428 0.00123624 -2.00403e-05
0 0.00122008 0.00122008
0 0.00333333 0.01
0 0.00666667 0.01
0.0111299 0.0090113 -0.000242096
0.012503 0.0103204 0.00321528
0.00555857 0.0101029 0.00333457
0.0124894 0.00684633 0.010209
0 0.00333333 0
0 0.00122008 0.00877992
0.00162653 1.11877e-05 0.00876663
0.00162769 0.00123635 0.00998652
0.0110861 0.0102591 0.00892031
0.00162755 0.0087958 0.00998881
0 0.00877992 0.00877992
0.0124967 0.00902851 0.0089343
0.00857787 0.0101955 -0.000178812
0.0125827 0.00121026 0.000995477
0.00162865 0.010022 0.00876767
0.011091 0.00899781 0.0101781
0.0125026 0.00512308 0.0102065
0 0 0.00333333
0.00861765 -3.23232e-05 -0.000166754
0.0111862 -4.79617e-05 0.00101234
0.001627 1.10025e-05 0.00119473
0 0.00877992 0.00122008
0.00163744 0.00879815 -2.01685e-05
0.00162409 0.0100208 0.00119335
0.0125332 0.00121889 0.00893303
0.0111239 0.00122448 0.01017
0.00855155 -1.78098e-05 0.010103
0.0111887 0.00121125 -0.000243212
0.0111375 -4.02577e-05 0.00891844
0.0125668 0.00339953 -0.000269494
0.0043358 0.0100734 0.0100192
0.00326643 0.0100516 0.00131168
0.0085093 0.0101805 0.0101097
0.0125053 0.00338962 0.0102016
0 0.01 0.005
0.00347667 0.00853317 -5.91694e-05
0.0124963 0.0103202 0.00495938
0 0.01 0.00333333
0 0.00166667 0
0.0125587 -7.08904e-05 0.00146383
0 0.00166667 0.01
0 0.00833333 0
0.0125227 0.00858481 -0.000273955
0.0125145 -6.34747e-05 0.00847
0.0124995 0.0103194 0.00146083
0.0124583 0.0103096 0.00847051
0.00219945 0.0100362 0.00999225
0 0.01 0.00833333
0.0105813 0.0102661 -0.000219547
0.0106428 -5.02269e-05 -0.000218533
0.0105772 -3.31858e-05 0.0101531
0.010531 0.0102425 0.0101609
0 0 0.00833333
0.0124704 0.0085633 0.0102096
0.00222139 3.84948e-06 -2.68642e-05
0 0 0.00166667
0.00438062 0.0100756 -8.0844e-05
0.0125019 0.00168531 0.0102017
0.0125652 0.00167433 -0.000267348
0.00220126 1.06689e-05 0.00999151
0.00221731 0.0100331 -3.13073e-05
0 0.01 0.00166667
0.01244 0.0103046 0.0102055
0 0 0.01
0.0124872 0.010319 -0.000267129
0.0124945 -5.72034e-05 0.0102004
0 0.01 0.01
0.012555 -7.67915e-05 -0.000259944
0 0.01 0
0 0 0
0.00650351 0.0101333 -0.000135184
0.00434038 1.43704e-05 0.0100185
0 0.00833333 0.01

CELLS 343 686
1 0
1 1
1 2
1 3
1 4
1 5
1 6
1 7
1 8
1 9
1 10
1 11
1 12
1 13
1 14
1 15
1 16
1 17
1 18
1 19
1 20
1 21
1 22
1 23
1 24
1 25
1 26
1 27
1 28
1 29
1 30
1 31
1 32
1 33
1 34
1 35
1 36
1 37
1 38
1 39
1 40
1 41
1 42
1 43
1 44
1 45
1 46
1 47
1 48
1 49
1 50
1 51
1 52
1 53
1 54
1 55
1 56
1 57
1 58
1 59
1 60
1 61
1 62
1 63
1 64
1 65
1 66
1 67
1 68
1 69
1 70
1 71
1 72
1 73
1 74
1 75
1 76
1 77
1 78
1 79
1 80
1 81
1 82
1 83
1 84
1 85
1 86
1 87
1 88
1 89
1 90
1 91
1 92
1 93
1 94
1 95
1 96
1 97
1 98
1 99
1 100
1 101
1 102
1 103
1 104
1 105
1 106
1 107
1 108
1 109
1 110
1 111
1 112
1 113
1 114
1 115
1 116
1 117
1 118
1 119
1 120
1 121
1 122
1 123
1 124
1 125
1 126
1 127
1 128
1 129
1 130
1 131
1 132
1 133
1 134
1 135
1 136
1 137
1 138
1 139
1 140
1 141
1 142
1 143
1 144
1 145
1 146
1 147
1 148
1 149
1 150
1 151
1 152
1 153
1 154
1 155
1 156
1 157
1 158
1 159
1 160
1 161
1 162
1 163
1 164
1 165
1 166
1 167
1 168
1 169
1 170
1 171
1 172
1 173
1 174
1 175
1 176
1 177
1 178
1 179
1 180
1 181
1 182
1 183
1 184
1 185
1 186
1 187
1 188
1 189
1 190
1 191
1 192
1 193
1 194
1 195
1 196
1 197
1 198
1 199
1 200
1 201
1 202
1 203
1 204
1 205
1 206
1 207
1 208
1 209
1 210
1 211
1 212
1 213
1 214
1 215
1 216
1 217
1 218
1 219
1 220
1 221
1 222
1 223
1 224
1 225
1 226
1 227
1 228
1 229
1 230
1 231
1 232
1 233
1 234
1 235
1 236
1 237
1 238
1 239
1 240
1 241
1 242
1 243
1 244
1 245
1 246
1 247
1 248
1 249
1 250
1 251
1 252
1 253
1 254
1 255
1 256
1 257
1 258
1 259
1 260
1 261
1 262
1 263
1 264
1 265
1 266
1 267
1 268
1 269
1 270
1 271
1 272
1 273
1 274
1 275
1 276
1 277
1 278
1 279
1 280
1 281
1 282
1 283
1 284
1 285
1 286
1 287
1 288
1 289
1 290
1 291
1 292
1 293
1 294
1 295
1 296
1 297
1 298
1 299
1 300
1 301
1 302
1 303
1 304
1 305
1 306
1 307
1 308
1 309
1 310
1 311
1 312
1 313
1 314
1 315
1 316
1 317
1 318
1 319
1 320
1 321
1 322
1 323
1 324
1 325
1 326
1 327
1 328
1 329
1 330
1 331
1 332
1 333
1 334
1 335
1 336
1 337
1 338
1 339
1 340
1 341
1 342

CELL_TYPES 343
1
1
1
1
1
1
1
1
1
1
1
1
1
1
1
1
1
1
1
1
1
1
1
1
1
1
1
1
1
1
1
1
1
1
1
1
1
1
1
1
1
1
1
1
1
1
1
1
1
1
1
1
1
1
1
1
1
1
1
1
1
1
1
1
1
1
1
1
1
1
1
1
1
1
1
1
1
1
1
1
1
1
1
1
1
1
1
1
1
1
1
1
1
1
1
1
1
1
1
1
1
1
1
1
1
1
1
1
1
1
1
1
1
1
1
1
1
1
1
1
1
1
1
1
1
1
1
1
1
1
1
1
1
1
1
1
1
1
1
1
1
1
1
1
1
1
1
1
1
1
1
1
1
1
1
1
1
1
1
1
1
1
1
1
1
1
1
1
1
1
1
1
1
1
1
1
1
1
1
1
1
1
1
1
1
1
1
1
1
1
1
1
1
1
1
1
1
1
1
1
1
1
1
1
1
1
1
1
1
1
1
1
1
1
1
1
1
1
1
1
1
1
1
1
1
1
1
1
1
1
1
1
1
1
1
1
1
1
1
1
1
1
1
1
1
1
1
1
1
1
1
1
1
1
1
1
1
1
1
1
1
1
1
1
1
1
1
1
1
1
1
1
1
1
1
1
1
1
1
1
1
1
1
1
1
1
1
1
1
1
1
1
1
1
1
1
1
1
1
1
1
1
1
1
1
1
1
1
1
1
1
1
1
1
1
1
1
1
1
1
1
1
1
1
1
1
1
1
1
1
1
1
1
1
1
1
1
1
1
1
1
1
1

POINT_DATA 343
FIELD FieldData 3

ExternalForceID_(#) 1 343 int
0
1
2
3
4
5
6
7
8
9
10
11
12
13
14
15
16
17
18
19
20
21
22
23
24
25
26
27
28
29
30
31
32
33
34
35
36
37
38
39
40
41
42
43
44
45
46
47
48
49
50
51
52
53
54
55
56
57
58
59
60
61
62
63
64
65
66
67
68
69
70
71
72
73
74
75
76
77
78
79
80
81
82
83
84
85
86
87
88
89
90
91
92
93
94
95
96
97
98
99
100
101
102
103
104
105
106
107
108
109
110
111
112
113
114
115
116
117
118
119
120
121
122
123
124
125
126
127
128
129
130
131
132
133
134
135
136
137
138
139
140
141
142
143
144
145
146
147
148
149
150
151
152
153
154
155
156
157
158
159
160
161
162
163
164
165
166
167
168
169
170
171
172
173
174
175
176
177
178
179
180
181
182
183
184
185
186
187
188
189
190
191
192
193
194
195
196
197
198
199
200
201
202
203
204
205
206
207
208
209
210
211
212
213
214
215
216
217
218
219
220
221
222
223
224
225
226
227
228
229
230
231
232
233
234
235
236
237
238
239
240
241
242
243
244
245
246
247
248
249
250
251
252
253
254
255
256
257
258
259
260
261
262
263
264
265
266
267
268
269
270
271
272
273
274
275
276
277
278
279
280
281
282
283
284
285
286
287
288
289
290
291
292
293
294
295
296
297
298
299
300
301
302
303
304
305
306
307
308
309
310
311
312
313
314
315
316
317
318
319
320
321
322
323
324
325
326
327
328
329
330
331
332
333
334
335
336
337
338
339
340
341
342

ExternalForceType_(0/1/2/3/4) 1 343 int
0
0
0
0
0
0
0
0
0
0
0
0
0
0
0
0
0
0
0
0
0
0
0
0
0
0
0
0
0
0
0
0
0
0
0
0
0
0
0
0
0
0
0
0
0
0
0
0
0
0
0
0
0
0
0
0
0
0
0
0
0
0
0
0
0
0
0
0
0
0
0
0
0
0
0
0
0
0
0
0
0
0
0
0
0
0
0
0
0
0
0
0
0
0
0
0
0
0
0
0
0
0
0
0
0
0
0
0
0
0
0
0
0
0
0
0
0
0
0
0
0
0
0
0
0
0
0
0
0
0
0
0
0
0
0
0
0
0
0
0
0
0
0
0
0
0
0
0
0
0
0
0
0
0
0
0
0
0
0
0
0
0
0
0
0
0
0
0
0
0
0
0
0
0
0
0
0
0
0
0
0
0
0
0
0
0
0
0
0
0
0
0
0
0
0
0
0
0
0
0
0
0
0
0
0
0
0
0
0
0
0
0
0
0
0
0
0
0
0
0
0
0
0
0
0
0
0
0
0
0
0
0
0
0
0
0
0
0
0
0
0
0
0
0
0
0
0
0
0
0
0
0
0
0
0
0
0
0
0
0
0
0
0
0
0
0
0
0
0
0
0
0
0
0
0
0
0
0
0
0
0
0
0
0
0
0
0
0
0
0
0
0
0
0
0
0
0
0
0
0
0
0
0
0
0
0
0
0
0
0
0
0
0
0
0
0
0
0
0
0
0
0
0
0
0
0
0
0
0
0
0
0
0
0
0
0
0
0
0
0
0
0
0

ExternalForce_(N) 3 343 double
0 -3.09568e-05 0
0 -0.000138619 0
0 -2.16714e-05 0
0 -0.000168226 0
0 -8.26002e-05 0
0 -8.9203e-05 0
0 -9.74165e-05 0
0 -7.37906e-05 0
0 -6.68156e-05 0
0 -5.47617e-05 0
0 -3.04981e-05 0
0 -0.000105531 0
0 -4.77758e-05 0
0 -0.000161821 0
0 -2.96713e-05 0
0 -7.9067e-05 0
0 -6.57564e-05 0
0 -0.000106704 0
0 -4.11017e-05 0
0 -8.006e-05 0
0 -6.02474e-05 0
0 -0.000115662 0
0 -2.18875e-05 0
0 -4.17098e-05 0
0 -0.000107827 0
0 -7.27379e-05 0
0 -4.13856e-05 0
0 -3.85027e-05 0
0 -3.029e-05 0
0 -0.000128774 0
0 -7.57947e-05 0
0 -0.000162261 0
0 -0.000116775 0
0 -7.15802e-05 0
0 -3.74431e-05 0
0 -0.000108892 0
0 -3.74072e-05 0
0 -0.000136493 0
0 -6.25303e-05 0
0 -7.85756e-05 0
0 -7.52544e-05 0
0 -0.000116589 0
0 -0.000160874 0
0 -2.73339e-05 0
0 -8.7662e-05 0
0 -2.53184e-05 0
0 -7.42972e-05 0
0 -4.15199e-05 0
0 -0.000128792 0
0 -3.72945e-05 0
0 -2.72189e-05 0
0 -7.03157e-05 0
0 -0.000119003 0
0 -5.02041e-05 0
0 -8.04153e-05 0
0 -4.4939e-05 0
0 -2.74192e-05 0
0 -3.19929e-05 0
0 -4.04607e-05 0
0 -2.07889e-05 0
0 -3.28809e-05 0
0 -3.54797e-05 0
0 -0.000153858 0
0 -7.19739e-05 0
0 -8.09026e-05 0
0 -4.90862e-05 0
0 -2.77255e-05 0
0 -7.06591e-05 0
0 -3.20606e-05 0
0 -4.10794e-05 0
0 -1.98932e-05 0
0 -2.37551e-05 0
0 -3.0591e-05 0
0 -5.86107e-05 0
0 -5.75946e-05 0
0 -4.01595e-05 0
0 -5.35099e-05 0
0 -2.24477e-05 0
0 -4.41213e-05 0
0 -4.29866e-05 0
0 -4.42325e-05 0
0 -4.30889e-05 0
0 -4.19155e-05 0
0 -5.21923e-05 0
0 -1.5029e-05 0
0 -2.34331e-05 0
0 -1.9903e-05 0
0 -4.30461e-05 0
0 -3.11931e-05 0
0 -3.08326e-05 0
0 -4.52797e-05 0
0 -5.7648e-05 0
0 -8.02544e-05 0
0 -2.43623e-05 0
0 -0.000150893 0
0 -3.43039e-05 0
0 -7.21258e-05 0
0 -1.97489e-05 0
0 -2.00202e-05 0
0 -7.83017e-05 0
0 -4.32908e-05 0
0 -7.00326e-05 0
0 -1.17841e-05 0
0 -4.93779e-05 0
0 -1.58193e-05 0
0 -4.04762e-05 0
0 -8.57147e-05 0
0 -4.2953e-05 0
0 -7.82027e-05 0
0 -2.09499e-05 0
0 -3.31713e-05 0
0 -9.30599e-05 0
0 -7.26197e-05 0
0 -1.76801e-05 0
0 -2.06228e-05 0
0 -7.8371e-05 0
0 -1.84411e-05 0
0 -7.30662e-05 0
0 -4.11806e-05 0
0 -2.3265e-05 0
0 -4.23503e-05 0
0 -5.94919e-05 0
0 -4.22718e-05 0
0 -2.12723e-05 0
0 -1.86252e-05 0
0 -1.77849e-05 0
0 -3.82356e-05 0
0 -2.39658e-05 0
0 -1.62481e-05 0
0 -7.86148e-05 0
0 -1.61387e-05 0
0 -2.34763e-05 0
0 -2.95637e-05 0
0 -2.93742e-05 0
0 -1.33947e-05 0
0 -1.83735e-05 0
0 -2.05639e-05 0
0 -1.91062e-05 0
0 -1.84053e-05 0
0 -6.25793e-05 0
0 -4.49914e-05 0
0 -1.98914e-05 0
0 -1.58922e-05 0
0 -2.367e-05 0
0 -3.81266e-05 0
0 -4.36518e-05 0
0 -2.25472e-05 0
0 -0.000115119 0
0 -3.05886e-05 0
0 -1.32828e-05 0
0 -3.38507e-05 0
0 -1.78391e-05 0
0 -2.88237e-05 0
0 -1.34771e-05 0
0 -2.36876e-05 0
0 -2.06453e-05 0
0 -2.58912e-05 0
0 -2.10097e-05 0
0 -1.7602e-05 0
0 -3.13896e-05 0
0 -1.34386e-05 0
0 -2.38863e-05 0
0 -2.04203e-05 0
0 -1.33426e-05 0
0 -2.13076e-05 0
0 -1.86316e-05 0
0 -3.10974e-05 0
0 -2.56228e-05 0
0 -2.33161e-05 0
0 -1.57181e-05 0
0 -1.87061e-05 0
0 -5.38771e-05 0
0 -1.84308e-05 0
0 -3.08341e-05 0
0 -2.91652e-05 0
0 -1.16203e-05 0
0 -1.85667e-05 0
0 -2.00287e-05 0
0 -2.68375e-05 0
0 -2.37799e-05 0
0 -3.16945e-05 0
0 -3.13676e-05 0
0 -3.15313e-05 0
0 -1.90796e-05 0
0 -1.58134e-05 0
0 -1.83326e-05 0
0 -3.16308e-05 0
0 -2.07128e-05 0
0 -2.91276e-05 0
0 -6.03597e-05 0
0 -2.26581e-05 0
0 -2.35174e-05 0
0 -2.33506e-05 0
0 -2.59482e-05 0
0 -1.63393e-05 0
0 -1.78912e-05 0
0 -2.02658e-05 0
0 -5.62379e-05 0
0 -2.04507e-05 0
0 -2.14176e-05 0
0 -2.38895e-05 0
0 -3.05955e-05 0
0 -3.11287e-05 0
0 -2.01544e-05 0
0 -1.92198e-05 0
0 -2.99909e-05 0
0 -6.32085e-05 0
0 -2.04829e-05 0
0 -2.67435e-05 0
0 -2.11611e-05 0
0 -1.83262e-05 0
0 -1.96474e-05 0
0 -2.0699e-05 0
0 -2.83503e-05 0
0 -2.27807e-05 0
0 -2.35234e-05 0
0 -1.93874e-05 0
0 -6.29086e-05 0
0 -2.12117e-05 0
0 -3.22943e-05 0
0 -2.06229e-05 0
0 -2.61501e-05 0
0 -1.90721e-05 0
0 -2.86319e-05 0
0 -2.53212e-05 0
0 -2.07681e-05 0
0 -2.05553e-05 0
0 -1.88077e-05 0
0 -6.92631e-05 0
0 -2.20924e-05 0
0 -2.02457e-05 0
0 -6.16224e-05 0
0 -2.08117e-05 0
0 -2.85397e-05 0
0 -2.08875e-05 0
0 -6.32617e-05 0
0 -1.39008e-05 0
0 -2.0289e-05 0
0 -6.45558e-05 0
0 -2.47785e-05 0
0 -2.35177e-05 0
0 -7.28089e-06 0
0 -2.18143e-05 0
0 -6.93323e-06 0
0 -6.87344e-06 0
0 -8.76768e-06 0
0 -2.48719e-05 0
0 -2.22231e-05 0
0 -1.31068e-05 0
0 -7.69816e-06 0
0 -2.27889e-05 0
0 -5.95166e-06 0
0 -6.55579e-06 0
0 -6.71305e-06 0
0 -2.46468e-05 0
0 -2.27228e-05 0
0 -7.6878e-06 0
0 -6.67903e-06 0
0 -6.10861e-05 0
0 -6.6189e-06 0
0 -6.52665e-06 0
0 -6.87836e-06 0
0 -1.78856e-05 0
0 -1.87072e-05 0
0 -6.73674e-06 0
0 -6.91401e-06 0
0 -1.82903e-05 0
0 -2.2423e-05 0
0 -6.67521e-06 0
0 -7.02401e-06 0
0 -1.78908e-05 0
0 -5.89658e-06 0
0 -1.98938e-05 0
0 -7.3162e-06 0
0 -5.63509e-06 0
0 -1.76631e-05 0
0 -1.42638e-05 0
0 -2.22707e-05 0
0 -1.77204e-05 0
0 -2.11264e-05 0
0 -1.75686e-05 0
0 -1.76047e-05 0
0 -6.69346e-06 0
0 -2.20467e-05 0
0 -1.42479e-05 0
0 -1.76144e-05 0
0 -6.84615e-06 0
0 -6.12404e-06 0
0 -6.50125e-06 0
0 -1.41879e-05 0
0 -1.37476e-05 0
0 -2.11168e-05 0
0 -1.79377e-05 0
0 -1.37282e-05 0
0 -1.41198e-05 0
0 -2.15061e-05 0
0 -6.84475e-06 0
0 -1.74349e-05 0
0 -1.75758e-05 0
0 -6.41828e-06 0
0 -7.20025e-06 0
0 -2.30432e-05 0
0 -6.96894e-06 0
0 -6.44499e-06 0
0 -6.14414e-06 0
0 -2.14766e-05 0
0 -6.00855e-06 0
0 -5.92427e-06 0
0 -5.81567e-06 0
0 -5.02303e-06 0
0 -5.01945e-06 0
0 -4.85271e-06 0
0 -4.87573e-06 0
0 -4.8684e-06 0
0 -5.22951e-06 0
0 -4.84801e-06 0
0 -4.88396e-06 0
0 -4.77612e-06 0
0 -4.81304e-06 0
0 -4.85251e-06 0
0 -4.8555e-06 0
0 -4.82575e-06 0
0 -4.80313e-06 0
0 -4.86923e-06 0
0 -4.85781e-06 0
0 -4.73027e-06 0
0 -1.08748e-05 0
0 -5.22863e-06 0
0 -5.34413e-06 0
0 -5.26459e-06 0
0 -5.05624e-06 0
0 -4.92238e-06 0
0 -5.43253e-06 0
0 -5.43253e-06 0
0 -5.43253e-06 0
0 -5.43253e-06 0
0 -5.43253e-06 0
0 -5.43253e-06 0
0 -5.40321e-06 0
0 -5.40321e-06 0
0 -7.3113e-06 0
0 -6.98147e-06 0
0 -4.8949e-06 0

