# vtk DataFile Version 4.2
vtk output
ASCII
DATASET UNSTRUCTURED_GRID

POINTS 343 double
0.00112256 0.00419491 9.1178e-08
0.00217118 0.00498251 0.00217536
0 0.00419538 0.00112517
0.00193013 0.00195444 0.00194216
0.00516952 0.00240674 0.00503225
0.00517221 0.00382993 0.00639754
0.00762278 0.00477517 0.00499896
0.00622481 0.00485024 0.00369182
0.00683623 0.00328839 0.00691397
0.00499117 0.00499243 0.00499982
0.00418028 0.00111803 0.00999912
0.00528091 0.00208012 0.00790407
0.0041902 -7.54288e-06 0.00831717
0.00201242 0.00200247 0.00803325
0.00428608 0.00253279 0.00999917
0.00695666 0.00644656 0.0069469
0.00641391 0.00618224 0.00518306
0.00226065 0.00218461 0.00514611
0 0.00143586 0.00417514
0.00159463 0.00346614 0.00403704
0.00683737 0.00319372 0.00316155
0.00774552 0.00221273 0.00506395
0 0.00270918 0.00154168
0.00415844 0.00142842 2.73176e-07
0.00500797 0.00218769 0.00219807
0.00396266 0.00352664 0.00160319
0.0013454 -6.0808e-07 0.00406002
0.00418347 -7.88922e-06 0.00168834
0.00262642 0.00695163 1.84012e-07
0.00193837 0.00805273 0.00194492
0.00408787 0.00624801 0.00164518
0.00800308 0.00798558 0.00799717
0.00796487 0.00481524 0.0080222
0.0083885 0.00607918 0.00594786
0.00999947 0.00882484 0.00419181
0.00757721 0.00763531 0.00496363
0.00856741 0.00997948 0.00416642
0.00797702 0.00797071 0.00201596
0.00353609 0.00303649 0.00695952
0.00443742 0.00366182 0.008324
0.0038924 0.00160045 0.00596902
0.00500566 0.00766814 0.00767664
0.00198971 0.00800787 0.00798964
0.00282764 0.00999724 0.00712715
0.00391681 0.00839942 0.00595781
0 0.00695361 0.00262895
0.00164656 0.00623925 0.0040879
0 0.0040177 0.00850214
0.00231512 0.0049857 0.0076615
0.00143334 0.00417447 0.00999995
0.00717499 0.00711774 0.00999773
0.00611826 0.00597051 0.00841726
0.00205198 0.00794141 0.00474185
0.00304385 0.00694286 0.00646771
0.00158699 0.00607835 0.00592601
0.00998922 0.00578303 0.00831441
0 0.00718191 0.00711644
0.00158465 0.00577344 6.04129e-08
0 0.00577432 0.00158701
0.00999413 0.00715674 0.00711387
0.00286748 0.00334926 0.00999969
0.00997033 0.0014083 0.00417393
0.00803651 0.00194244 0.00197895
0.00838952 0.00350161 0.00399813
0.00372587 0.00164794 0.00412834
0.00150944 0.00999967 0.00581502
0.00280965 -3.63863e-06 0.0071277
0.00610983 0.00417122 0.00837574
0.00999325 0.00724879 0.00419412
0.00852865 -2.26554e-05 0.00416729
0.00334183 0.00286962 1.96297e-07
0.00270028 0.0015388 0.00999972
0.00281846 -4.01644e-06 0.00283205
0.00479799 0.00519396 0.00755415
0.00315828 0.00314624 0.00316737
0 0.00849157 0.00581511
0.00486493 0.00366939 0.00378619
0.0015371 0.00270865 4.73659e-08
0.00579989 0.00831572 0.00999824
0.0059851 0.00998904 0.00850477
0.00421429 0.00999395 0.00831724
0.00401798 0.00849821 0.0099989
0.00999872 0.00846616 0.00581285
0.00314758 0.00683351 0.00315089
0 0.00748929 0.00137438
0.00137346 0.00748898 2.63779e-08
0 0.00287343 0.00335182
0 0.00580816 0.00831736
0 0.00429792 0.00253898
0.00253367 0.00429589 1.93881e-07
0.00143394 0.00581917 0.00999996
0.00517556 0.00646845 0.00639998
0.00360346 0.00650932 0.00823377
0.00693249 0.0026127 0.00999804
0.0079996 0.00193932 0.00803386
0.00694211 -1.68598e-05 0.00308181
0.0060009 0.00165222 0.00361269
0.00997557 0.00284676 0.00335083
0 0.00140616 0.00256446
0.00637357 0.00821645 0.00642016
0.0057968 0.00142307 4.77628e-07
0.00602225 0.00354077 0.00160325
0.00315731 0.00999643 0.00582511
0.00856271 0.00997966 0.00583151
0.00255409 0.00140297 2.09508e-07
0.00595018 -1.34104e-05 0.0014946
0.00628059 0.00827648 0.00361686
0.00852407 -2.24759e-05 0.00583208
0.0061868 0.00166032 0.0063646
0.00140237 0.00256406 0.01
0.00711144 0.00716747 -1.1173e-07
0.00516538 0.00768213 0.00216881
0.00593655 0.00608363 0.00160182
0 0.00686719 0.00578184
0.00996955 0.00137839 0.00256379
0.00177233 0.00360988 0.00640785
0.00999748 0.00846117 0.00262245
0.00840361 0.00617013 0.0041318
0.00598324 0.00998837 0.00149358
0.00694212 -1.65766e-05 0.00692546
0.00997103 0.00140811 0.00581784
0.00837956 0.00355356 0.0060595
0.00150193 -7.74306e-07 0.00581519
0 0.0013659 0.00748679
0.00136377 -6.51201e-07 0.00752891
0.0099923 0.00684195 0.00577967
0.00581545 0.00848101 -2.05842e-08
0 0.0075208 0.00859127
0.00136521 0.00748643 0.00999989
0.00423118 0.00820021 0.00362815
0.00859624 0.00997953 0.00750994
0.0100001 0.00860496 0.00752355
0.00575532 0.00157543 0.00999847
0.00724574 0.00417325 0.00999787
0 0.0057735 0.00666667
0.00137039 0.00999961 0.00752892
0 0.00863025 0.00752641
0.00855465 -2.30832e-05 0.00250715
0.00999137 0.00692806 0.00262779
0.00845063 0.00632261 0.00216229
0.00850045 0.00580465 0.00999729
0.0074659 0.00135659 0.00999772
0.00855748 -2.26978e-05 0.00751008
0.00997143 0.00133857 0.00748426
0 0.00143551 0.00581971
0.00595243 -1.2953e-05 0.00850467
0.00419335 -7.93501e-06 0.00339999
0.00792026 0.00468992 0.0020341
0.00998081 0.00427188 0.00253807
0.00423183 0.00999372 0.00666606
0.00283673 0.00999729 0.00283191
0.00130705 -6.62611e-07 0.00241833
0 0.00727418 0.00419576
0.00998832 0.00574829 0.00666424
0.00697778 0.00998511 0.00308093
0.00750877 0.00862114 0.00999759
0 0.00574334 0.00336387
0 0.0043297 0.00416652
0.00686228 0.00577128 0.00999803
0.00997762 0.0029959 0.00691292
0.00420622 -7.7338e-06 0.0066664
0.00248059 0.00999765 0.00861134
0.00745962 0.00134751 3.1957e-07
0.00577063 0.00665748 0.00999829
0.00999614 0.00749573 0.00858813
0.00860584 0.00753406 0.00999717
0.00689511 0.00300718 3.93273e-07
0.003359 0.00574042 2.97158e-07
0.00752612 0.0086138 -3.13431e-07
0.00751948 0.00998287 0.00138676
0.00577705 0.00685744 5.60775e-08
0.00696824 0.00635727 0.00303291
0.00748263 -1.92289e-05 0.00138784
0.00288052 0.00499712 0.0099996
0.00432563 0.00582859 0.00999895
0.00432155 0.00416146 0.00999902
0.00752203 0.00998345 0.00861391
0.00246505 -3.07335e-06 0.00861153
0.00998676 0.00571782 0.00336265
0 0.00302218 0.00691532
0.00998216 0.00399208 0.00849921
0.00848288 0.00399712 4.43694e-08
0.00997425 0.00268215 0.00154121
0 0.00244495 0.00857025
0.0024461 0.00856817 0.00999949
0.00748534 -1.87317e-05 0.00861378
0.00846626 0.00260335 0.0099973
0.00883579 0.0041728 0.00999714
0.00567565 0.00998967 0.0058325
0.00518504 0.00757576 0.0050319
0.00564751 0.00998961 0.00421465
0.00697769 0.00998545 0.00692511
0.0030208 0.00691331 0.00999936
0.00415728 0.0043246 4.05896e-07
0.0028215 -4.15083e-06 0.00440475
0.00313776 -4.63575e-06 0.00582552
0.0099799 0.00416907 0.00112466
0.00363805 0.00833316 0.0015883
0.00998159 0.00430382 0.00416514
0.00665692 0.00576071 2.11201e-07
0.00859356 0.00997913 0.00250606
0 0.00848692 0.00262374
0.00135215 0.00999965 0.00405987
0 0.00885053 0.00419359
0.004195 0.00884427 1.38708e-07
0.00420878 0.00999352 0.00168765
0.00498995 0.00478438 0.00237887
0.00720433 0.00450638 2.54126e-07
0.00561637 -1.23091e-05 0.00421544
0.00564457 -1.22448e-05 0.00583294
0.00131365 0.00999966 0.00241806
0.0085448 0.00242328 1.43809e-07
0.00998362 0.00449621 0.00721701
0.00712043 0.00998482 0.00499911
0.00573017 0.00335408 0.00999851
0.0024457 -3.24984e-06 0.00135676
0.00997602 0.00241832 0.00856739
0.00239181 0.00478978 0.00499992
0.00581994 0.00431978 4.28746e-07
0.0083054 0.00578891 -1.62682e-07
0.00548484 0.00999043 0.00721949
0.00998225 0.00430441 0.00583131
0.00540742 0.00999022 0.0027752
0.0070844 -1.71662e-05 0.00499981
0.00283924 0.0099973 0.00440432
0 0.00452174 0.00721958
0.00452026 0.00721449 0.0099988
0.00545433 -1.14483e-05 0.00721946
0.00359804 0.00507046 0.00359651
0.00425646 0.00999366 0.00500782
0.00423017 -7.91123e-06 0.00500846
0.0036663 0.00521344 0.00617442
0 0.005744 0.00499998
0 0.00433013 0.00583333
0.00499265 0.0057371 3.73968e-07
0.00498037 0.0063323 0.00355363
0.00537682 -1.16348e-05 0.00277611
0.00998747 0.00571867 0.00499816
0.00368793 0.00640437 0.00484379
0.005736 0.00499116 0.00999845
0.00998625 0.00574859 0.00158626
0 0.00666667 0
0.00858566 0.00750065 -4.71165e-07
0.0033164 -6.14614e-06 8.64181e-07
0 0.01 0.00666667
0.00500649 0.00999152 0.00999881
0 0.00288419 0.00499914
0.00999306 0.00746361 0.00137353
0.00998935 0.0066409 -7.01556e-07
0 0.005 0.01
0.00498334 0.00287571 3.79742e-07
0 0.005 0
0.00996434 -2.85398e-05 0.00333256
0.0100052 0.00997391 0.00666397
0.00419323 0.00726897 2.13989e-07
0.00997621 0.00285774 0.00499753
0.00497601 -1.09794e-05 8.99132e-07
0 0 0.00666667
0.00379048 0.00361266 0.00522622
0.00497876 -1.0449e-05 0.00999841
0.00996572 -2.8267e-05 0.00666447
0 0 0.005
0.00878422 0.0099782 0.00121924
0.00999816 0.00875384 0.00121909
0.00996499 -2.83555e-05 0.00499853
0.00998275 0.0049738 -4.66026e-07
0.00121559 0.00121925 -8.86991e-10
0 0.00122008 0.00122008
0 0.00333333 0.01
0 0.00666667 0.01
0.00877908 0.00875853 -6.8328e-07
0.0100038 0.00997356 0.00333163
0.00421945 0.00999361 0.00339938
0.00999332 0.00664171 0.00999669
0 0.00333333 0
0 0.00122008 0.00877992
0.00121499 -8.27491e-07 0.00877969
0.00121619 0.00121952 0.0100001
0.00878711 0.00997876 0.00877733
0.00122004 0.00877945 0.00999988
0 0.00877992 0.00877992
0.0100013 0.00875455 0.00877675
0.0066716 0.00998574 -5.12217e-07
0.00996825 0.00119198 0.00121984
0.00122102 0.00999945 0.00878009
0.00878301 0.00875929 0.00999714
0.00998669 0.00497471 0.00999672
0 0 0.00333333
0.00663663 -1.63224e-05 8.59001e-07
0.00874513 -2.40624e-05 0.00122041
0.001206 -8.65099e-07 0.00121209
0 0.00877992 0.00122008
0.00121995 0.0087794 1.03759e-07
0.0012123 0.0099995 0.00121142
0.00997133 0.00119258 0.00877686
0.00875336 0.00119724 0.00999708
0.0066402 -1.58067e-05 0.00999759
0.00874938 0.00119662 2.28113e-07
0.00874821 -2.35396e-05 0.00877712
0.00997623 0.00330652 -2.77724e-07
0.00333814 0.0099955 0.0099996
0.00246177 0.00999784 0.00135634
0.0066747 0.00998643 0.00999821
0.0099801 0.00330743 0.00999671
0 0.01 0.005
0.002624 0.00848461 1.88846e-07
0.0100044 0.00997375 0.00499787
0 0.01 0.00333333
0 0.00166667 0
0.00996369 -2.8794e-05 0.00166648
0 0.00166667 0.01
0 0.00833333 0
0.00999604 0.00830726 -9.30506e-07
0.00996643 -2.83301e-05 0.00833029
0.0100032 0.00997335 0.00166544
0.0100059 0.00997395 0.00833028
0.00166899 0.0099985 0.0099999
0 0.01 0.00833333
0.00833766 0.0099797 -7.60991e-07
0.00829913 -2.26573e-05 5.19861e-07
0.00830306 -2.21067e-05 0.00999701
0.00834124 0.00998027 0.00999742
0 0 0.00833333
0.01 0.0083081 0.00999664
0.00165791 -2.14144e-06 2.71609e-07
0 0 0.00166667
0.00333743 0.00999567 6.98297e-08
0.00997357 0.00163933 0.00999665
0.00996962 0.00163868 -1.40686e-07
0.00165909 -1.75335e-06 0.00999999
0.00166857 0.00999879 7.42562e-08
0 0.01 0.00166667
0.0100066 0.00997397 0.00999672
0 0 0.01
0.0100026 0.00997318 -1.21145e-06
0.00996707 -2.84368e-05 0.00999636
0 0.01 0.01
0.00996307 -2.90078e-05 1.18366e-07
0 0.01 0
0 0 0
0.00500474 0.00999103 -1.61968e-07
0.00331842 -5.52801e-06 0.00999908
0 0.00833333 0.01

CELLS 343 686
1 0
1 1
1 2
1 3
1 4
1 5
1 6
1 7
1 8
1 9
1 10
1 11
1 12
1 13
1 14
1 15
1 16
1 17
1 18
1 19
1 20
1 21
1 22
1 23
1 24
1 25
1 26
1 27
1 28
1 29
1 30
1 31
1 32
1 33
1 34
1 35
1 36
1 37
1 38
1 39
1 40
1 41
1 42
1 43
1 44
1 45
1 46
1 47
1 48
1 49
1 50
1 51
1 52
1 53
1 54
1 55
1 56
1 57
1 58
1 59
1 60
1 61
1 62
1 63
1 64
1 65
1 66
1 67
1 68
1 69
1 70
1 71
1 72
1 73
1 74
1 75
1 76
1 77
1 78
1 79
1 80
1 81
1 82
1 83
1 84
1 85
1 86
1 87
1 88
1 89
1 90
1 91
1 92
1 93
1 94
1 95
1 96
1 97
1 98
1 99
1 100
1 101
1 102
1 103
1 104
1 105
1 106
1 107
1 108
1 109
1 110
1 111
1 112
1 113
1 114
1 115
1 116
1 117
1 118
1 119
1 120
1 121
1 122
1 123
1 124
1 125
1 126
1 127
1 128
1 129
1 130
1 131
1 132
1 133
1 134
1 135
1 136
1 137
1 138
1 139
1 140
1 141
1 142
1 143
1 144
1 145
1 146
1 147
1 148
1 149
1 150
1 151
1 152
1 153
1 154
1 155
1 156
1 157
1 158
1 159
1 160
1 161
1 162
1 163
1 164
1 165
1 166
1 167
1 168
1 169
1 170
1 171
1 172
1 173
1 174
1 175
1 176
1 177
1 178
1 179
1 180
1 181
1 182
1 183
1 184
1 185
1 186
1 187
1 188
1 189
1 190
1 191
1 192
1 193
1 194
1 195
1 196
1 197
1 198
1 199
1 200
1 201
1 202
1 203
1 204
1 205
1 206
1 207
1 208
1 209
1 210
1 211
1 212
1 213
1 214
1 215
1 216
1 217
1 218
1 219
1 220
1 221
1 222
1 223
1 224
1 225
1 226
1 227
1 228
1 229
1 230
1 231
1 232
1 233
1 234
1 235
1 236
1 237
1 238
1 239
1 240
1 241
1 242
1 243
1 244
1 245
1 246
1 247
1 248
1 249
1 250
1 251
1 252
1 253
1 254
1 255
1 256
1 257
1 258
1 259
1 260
1 261
1 262
1 263
1 264
1 265
1 266
1 267
1 268
1 269
1 270
1 271
1 272
1 273
1 274
1 275
1 276
1 277
1 278
1 279
1 280
1 281
1 282
1 283
1 284
1 285
1 286
1 287
1 288
1 289
1 290
1 291
1 292
1 293
1 294
1 295
1 296
1 297
1 298
1 299
1 300
1 301
1 302
1 303
1 304
1 305
1 306
1 307
1 308
1 309
1 310
1 311
1 312
1 313
1 314
1 315
1 316
1 317
1 318
1 319
1 320
1 321
1 322
1 323
1 324
1 325
1 326
1 327
1 328
1 329
1 330
1 331
1 332
1 333
1 334
1 335
1 336
1 337
1 338
1 339
1 340
1 341
1 342

CELL_TYPES 343
1
1
1
1
1
1
1
1
1
1
1
1
1
1
1
1
1
1
1
1
1
1
1
1
1
1
1
1
1
1
1
1
1
1
1
1
1
1
1
1
1
1
1
1
1
1
1
1
1
1
1
1
1
1
1
1
1
1
1
1
1
1
1
1
1
1
1
1
1
1
1
1
1
1
1
1
1
1
1
1
1
1
1
1
1
1
1
1
1
1
1
1
1
1
1
1
1
1
1
1
1
1
1
1
1
1
1
1
1
1
1
1
1
1
1
1
1
1
1
1
1
1
1
1
1
1
1
1
1
1
1
1
1
1
1
1
1
1
1
1
1
1
1
1
1
1
1
1
1
1
1
1
1
1
1
1
1
1
1
1
1
1
1
1
1
1
1
1
1
1
1
1
1
1
1
1
1
1
1
1
1
1
1
1
1
1
1
1
1
1
1
1
1
1
1
1
1
1
1
1
1
1
1
1
1
1
1
1
1
1
1
1
1
1
1
1
1
1
1
1
1
1
1
1
1
1
1
1
1
1
1
1
1
1
1
1
1
1
1
1
1
1
1
1
1
1
1
1
1
1
1
1
1
1
1
1
1
1
1
1
1
1
1
1
1
1
1
1
1
1
1
1
1
1
1
1
1
1
1
1
1
1
1
1
1
1
1
1
1
1
1
1
1
1
1
1
1
1
1
1
1
1
1
1
1
1
1
1
1
1
1
1
1
1
1
1
1
1
1
1
1
1
1
1
1
1
1
1
1
1
1
1
1
1
1
1
1
1
1
1
1
1
1

POINT_DATA 343
FIELD FieldData 3

ExternalForceID_(#) 1 343 int
0
1
2
3
4
5
6
7
8
9
10
11
12
13
14
15
16
17
18
19
20
21
22
23
24
25
26
27
28
29
30
31
32
33
34
35
36
37
38
39
40
41
42
43
44
45
46
47
48
49
50
51
52
53
54
55
56
57
58
59
60
61
62
63
64
65
66
67
68
69
70
71
72
73
74
75
76
77
78
79
80
81
82
83
84
85
86
87
88
89
90
91
92
93
94
95
96
97
98
99
100
101
102
103
104
105
106
107
108
109
110
111
112
113
114
115
116
117
118
119
120
121
122
123
124
125
126
127
128
129
130
131
132
133
134
135
136
137
138
139
140
141
142
143
144
145
146
147
148
149
150
151
152
153
154
155
156
157
158
159
160
161
162
163
164
165
166
167
168
169
170
171
172
173
174
175
176
177
178
179
180
181
182
183
184
185
186
187
188
189
190
191
192
193
194
195
196
197
198
199
200
201
202
203
204
205
206
207
208
209
210
211
212
213
214
215
216
217
218
219
220
221
222
223
224
225
226
227
228
229
230
231
232
233
234
235
236
237
238
239
240
241
242
243
244
245
246
247
248
249
250
251
252
253
254
255
256
257
258
259
260
261
262
263
264
265
266
267
268
269
270
271
272
273
274
275
276
277
278
279
280
281
282
283
284
285
286
287
288
289
290
291
292
293
294
295
296
297
298
299
300
301
302
303
304
305
306
307
308
309
310
311
312
313
314
315
316
317
318
319
320
321
322
323
324
325
326
327
328
329
330
331
332
333
334
335
336
337
338
339
340
341
342

ExternalForceType_(0/1/2/3/4) 1 343 int
0
0
0
0
0
0
0
0
0
0
0
0
0
0
0
0
0
0
0
0
0
0
0
0
0
0
0
0
0
0
0
0
0
0
0
0
0
0
0
0
0
0
0
0
0
0
0
0
0
0
0
0
0
0
0
0
0
0
0
0
0
0
0
0
0
0
0
0
0
0
0
0
0
0
0
0
0
0
0
0
0
0
0
0
0
0
0
0
0
0
0
0
0
0
0
0
0
0
0
0
0
0
0
0
0
0
0
0
0
0
0
0
0
0
0
0
0
0
0
0
0
0
0
0
0
0
0
0
0
0
0
0
0
0
0
0
0
0
0
0
0
0
0
0
0
0
0
0
0
0
0
0
0
0
0
0
0
0
0
0
0
0
0
0
0
0
0
0
0
0
0
0
0
0
0
0
0
0
0
0
0
0
0
0
0
0
0
0
0
0
0
0
0
0
0
0
0
0
0
0
0
0
0
0
0
0
0
0
0
0
0
0
0
0
0
0
0
0
0
0
0
0
0
0
0
0
0
0
0
0
0
0
0
0
0
0
0
0
0
0
0
0
0
0
0
0
0
0
0
0
0
0
0
0
0
0
0
0
0
0
0
0
0
0
0
0
0
0
0
0
0
0
0
0
0
0
0
0
0
0
0
0
0
0
0
0
0
0
0
0
0
0
0
0
0
0
0
0
0
0
0
0
0
0
0
0
0
0
0
0
0
0
0
0
0
0
0
0
0
0
0
0
0
0
0
0
0
0
0
0
0
0
0
0
0
0
0
0
0
0
0
0
0

ExternalForce_(N) 3 343 double
0 -3.09568e-05 0
0 -0.000138619 0
0 -2.16714e-05 0
0 -0.000168226 0
0 -8.26002e-05 0
0 -8.9203e-05 0
0 -9.74165e-05 0
0 -7.37906e-05 0
0 -6.68156e-05 0
0 -5.47617e-05 0
0 -3.04981e-05 0
0 -0.000105531 0
0 -4.77758e-05 0
0 -0.000161821 0
0 -2.96713e-05 0
0 -7.9067e-05 0
0 -6.57564e-05 0
0 -0.000106704 0
0 -4.11017e-05 0
0 -8.006e-05 0
0 -6.02474e-05 0
0 -0.000115662 0
0 -2.18875e-05 0
0 -4.17098e-05 0
0 -0.000107827 0
0 -7.27379e-05 0
0 -4.13856e-05 0
0 -3.85027e-05 0
0 -3.029e-05 0
0 -0.000128774 0
0 -7.57947e-05 0
0 -0.000162261 0
0 -0.000116775 0
0 -7.15802e-05 0
0 -3.74431e-05 0
0 -0.000108892 0
0 -3.74072e-05 0
0 -0.000136493 0
0 -6.25303e-05 0
0 -7.85756e-05 0
0 -7.52544e-05 0
0 -0.000116589 0
0 -0.000160874 0
0 -2.73339e-05 0
0 -8.7662e-05 0
0 -2.53184e-05 0
0 -7.42972e-05 0
0 -4.15199e-05 0
0 -0.000128792 0
0 -3.72945e-05 0
0 -2.72189e-05 0
0 -7.03157e-05 0
0 -0.000119003 0
0 -5.02041e-05 0
0 -8.04153e-05 0
0 -4.4939e-05 0
0 -2.74192e-05 0
0 -3.19929e-05 0
0 -4.04607e-05 0
0 -2.07889e-05 0
0 -3.28809e-05 0
0 -3.54797e-05 0
0 -0.000153858 0
0 -7.19739e-05 0
0 -8.09026e-05 0
0 -4.90862e-05 0
0 -2.77255e-05 0
0 -7.06591e-05 0
0 -3.20606e-05 0
0 -4.10794e-05 0
0 -1.98932e-05 0
0 -2.37551e-05 0
0 -3.0591e-05 0
0 -5.86107e-05 0
0 -5.75946e-05 0
0 -4.01595e-05 0
0 -5.35099e-05 0
0 -2.24477e-05 0
0 -4.41213e-05 0
0 -4.29866e-05 0
0 -4.42325e-05 0
0 -4.30889e-05 0
0 -4.19155e-05 0
0 -5.21923e-05 0
0 -1.5029e-05 0
0 -2.34331e-05 0
0 -1.9903e-05 0
0 -4.30461e-05 0
0 -3.11931e-05 0
0 -3.08326e-05 0
0 -4.52797e-05 0
0 -5.7648e-05 0
0 -8.02544e-05 0
0 -2.43623e-05 0
0 -0.000150893 0
0 -3.43039e-05 0
0 -7.21258e-05 0
0 -1.97489e-05 0
0 -2.00202e-05 0
0 -7.83017e-05 0
0 -4.32908e-05 0
0 -7.00326e-05 0
0 -1.17841e-05 0
0 -4.93779e-05 0
0 -1.58193e-05 0
0 -4.04762e-05 0
0 -8.57147e-05 0
0 -4.2953e-05 0
0 -7.82027e-05 0
0 -2.09499e-05 0
0 -3.31713e-05 0
0 -9.30599e-05 0
0 -7.26197e-05 0
0 -1.76801e-05 0
0 -2.06228e-05 0
0 -7.8371e-05 0
0 -1.84411e-05 0
0 -7.30662e-05 0
0 -4.11806e-05 0
0 -2.3265e-05 0
0 -4.23503e-05 0
0 -5.94919e-05 0
0 -4.22718e-05 0
0 -2.12723e-05 0
0 -1.86252e-05 0
0 -1.77849e-05 0
0 -3.82356e-05 0
0 -2.39658e-05 0
0 -1.62481e-05 0
0 -7.86148e-05 0
0 -1.61387e-05 0
0 -2.34763e-05 0
0 -2.95637e-05 0
0 -2.93742e-05 0
0 -1.33947e-05 0
0 -1.83735e-05 0
0 -2.05639e-05 0
0 -1.91062e-05 0
0 -1.84053e-05 0
0 -6.25793e-05 0
0 -4.49914e-05 0
0 -1.98914e-05 0
0 -1.58922e-05 0
0 -2.367e-05 0
0 -3.81266e-05 0
0 -4.36518e-05 0
0 -2.25472e-05 0
0 -0.000115119 0
0 -3.05886e-05 0
0 -1.32828e-05 0
0 -3.38507e-05 0
0 -1.78391e-05 0
0 -2.88237e-05 0
0 -1.34771e-05 0
0 -2.36876e-05 0
0 -2.06453e-05 0
0 -2.58912e-05 0
0 -2.10097e-05 0
0 -1.7602e-05 0
0 -3.13896e-05 0
0 -1.34386e-05 0
0 -2.38863e-05 0
0 -2.04203e-05 0
0 -1.33426e-05 0
0 -2.13076e-05 0
0 -1.86316e-05 0
0 -3.10974e-05 0
0 -2.56228e-05 0
0 -2.33161e-05 0
0 -1.57181e-05 0
0 -1.87061e-05 0
0 -5.38771e-05 0
0 -1.84308e-05 0
0 -3.08341e-05 0
0 -2.91652e-05 0
0 -1.16203e-05 0
0 -1.85667e-05 0
0 -2.00287e-05 0
0 -2.68375e-05 0
0 -2.37799e-05 0
0 -3.16945e-05 0
0 -3.13676e-05 0
0 -3.15313e-05 0
0 -1.90796e-05 0
0 -1.58134e-05 0
0 -1.83326e-05 0
0 -3.16308e-05 0
0 -2.07128e-05 0
0 -2.91276e-05 0
0 -6.03597e-05 0
0 -2.26581e-05 0
0 -2.35174e-05 0
0 -2.33506e-05 0
0 -2.59482e-05 0
0 -1.63393e-05 0
0 -1.78912e-05 0
0 -2.02658e-05 0
0 -5.62379e-05 0
0 -2.04507e-05 0
0 -2.14176e-05 0
0 -2.38895e-05 0
0 -3.05955e-05 0
0 -3.11287e-05 0
0 -2.01544e-05 0
0 -1.92198e-05 0
0 -2.99909e-05 0
0 -6.32085e-05 0
0 -2.04829e-05 0
0 -2.67435e-05 0
0 -2.11611e-05 0
0 -1.83262e-05 0
0 -1.96474e-05 0
0 -2.0699e-05 0
0 -2.83503e-05 0
0 -2.27807e-05 0
0 -2.35234e-05 0
0 -1.93874e-05 0
0 -6.29086e-05 0
0 -2.12117e-05 0
0 -3.22943e-05 0
0 -2.06229e-05 0
0 -2.61501e-05 0
0 -1.90721e-05 0
0 -2.86319e-05 0
0 -2.53212e-05 0
0 -2.07681e-05 0
0 -2.05553e-05 0
0 -1.88077e-05 0
0 -6.92631e-05 0
0 -2.20924e-05 0
0 -2.02457e-05 0
0 -6.16224e-05 0
0 -2.08117e-05 0
0 -2.85397e-05 0
0 -2.08875e-05 0
0 -6.32617e-05 0
0 -1.39008e-05 0
0 -2.0289e-05 0
0 -6.45558e-05 0
0 -2.47785e-05 0
0 -2.35177e-05 0
0 -7.28089e-06 0
0 -2.18143e-05 0
0 -6.93323e-06 0
0 -6.87344e-06 0
0 -8.76768e-06 0
0 -2.48719e-05 0
0 -2.22231e-05 0
0 -1.31068e-05 0
0 -7.69816e-06 0
0 -2.27889e-05 0
0 -5.95166e-06 0
0 -6.55579e-06 0
0 -6.71305e-06 0
0 -2.46468e-05 0
0 -2.27228e-05 0
0 -7.6878e-06 0
0 -6.67903e-06 0
0 -6.10861e-05 0
0 -6.6189e-06 0
0 -6.52665e-06 0
0 -6.87836e-06 0
0 -1.78856e-05 0
0 -1.87072e-05 0
0 -6.73674e-06 0
0 -6.91401e-06 0
0 -1.82903e-05 0
0 -2.2423e-05 0
0 -6.67521e-06 0
0 -7.02401e-06 0
0 -1.78908e-05 0
0 -5.89658e-06 0
0 -1.98938e-05 0
0 -7.3162e-06 0
0 -5.63509e-06 0
0 -1.76631e-05 0
0 -1.42638e-05 0
0 -2.22707e-05 0
0 -1.77204e-05 0
0 -2.11264e-05 0
0 -1.75686e-05 0
0 -1.76047e-05 0
0 -6.69346e-06 0
0 -2.20467e-05 0
0 -1.42479e-05 0
0 -1.76144e-05 0
0 -6.84615e-06 0
0 -6.12404e-06 0
0 -6.50125e-06 0
0 -1.41879e-05 0
0 -1.37476e-05 0
0 -2.11168e-05 0
0 -1.79377e-05 0
0 -1.37282e-05 0
0 -1.41198e-05 0
0 -2.15061e-05 0
0 -6.84475e-06 0
0 -1.74349e-05 0
0 -1.75758e-05 0
0 -6.41828e-06 0
0 -7.20025e-06 0
0 -2.30432e-05 0
0 -6.96894e-06 0
0 -6.44499e-06 0
0 -6.14414e-06 0
0 -2.14766e-05 0
0 -6.00855e-06 0
0 -5.92427e-06 0
0 -5.81567e-06 0
0 -5.02303e-06 0
0 -5.01945e-06 0
0 -4.85271e-06 0
0 -4.87573e-06 0
0 -4.8684e-06 0
0 -5.22951e-06 0
0 -4.84801e-06 0
0 -4.88396e-06 0
0 -4.77612e-06 0
0 -4.81304e-06 0
0 -4.85251e-06 0
0 -4.8555e-06 0
0 -4.82575e-06 0
0 -4.80313e-06 0
0 -4.86923e-06 0
0 -4.85781e-06 0
0 -4.73027e-06 0
0 -1.08748e-05 0
0 -5.22863e-06 0
0 -5.34413e-06 0
0 -5.26459e-06 0
0 -5.05624e-06 0
0 -4.92238e-06 0
0 -5.43253e-06 0
0 -5.43253e-06 0
0 -5.43253e-06 0
0 -5.43253e-06 0
0 -5.43253e-06 0
0 -5.43253e-06 0
0 -5.40321e-06 0
0 -5.40321e-06 0
0 -7.3113e-06 0
0 -6.98147e-06 0
0 -4.8949e-06 0

