# vtk DataFile Version 4.2
vtk output
ASCII
DATASET UNSTRUCTURED_GRID

POINTS 343 double
0.00137288 0.00420347 -9.65096e-06
0.00265654 0.00499775 0.00215748
0 0.00419538 0.00112517
0.00235443 0.00196761 0.00192642
0.00627927 0.00241493 0.00499406
0.0062933 0.00384484 0.00636145
0.00927541 0.00477696 0.00494595
0.00758491 0.00486179 0.00364388
0.00830187 0.00329046 0.00687072
0.006087 0.00501033 0.00496203
0.0050605 0.00112411 0.00997257
0.00640443 0.00208606 0.00786962
0.00506672 -4.28871e-06 0.00828798
0.00245055 0.00201649 0.00801716
0.00519987 0.00254466 0.00997244
0.00848236 0.00645877 0.00690262
0.00782522 0.00619638 0.00513664
0.00275477 0.00219906 0.00512779
0 0.00143586 0.00417514
0.00194747 0.00347828 0.00402338
0.00830937 0.00319412 0.00310878
0.00939371 0.0022019 0.00501109
0 0.00270918 0.00154168
0.00504938 0.00143416 -3.64763e-05
0.00608398 0.00219409 0.00215891
0.00482958 0.00354301 0.00157067
0.00163568 9.26061e-06 0.00404921
0.00506729 -5.02433e-06 0.00165566
0.00321636 0.00696871 -2.36783e-05
0.00237837 0.00806702 0.00192896
0.00499848 0.00626941 0.00161117
0.0097648 0.0079936 0.00795114
0.00968224 0.00481541 0.00797669
0.0102147 0.00607951 0.00589306
0.0121951 0.0088191 0.00412123
0.00925276 0.00764497 0.00490956
0.0104776 0.00998614 0.0041035
0.00974548 0.00797792 0.00195166
0.0043039 0.00305303 0.00693242
0.00539639 0.00367881 0.00829493
0.00472556 0.00161037 0.00593971
0.00611851 0.00768676 0.00764294
0.00243734 0.00802165 0.00797259
0.00347178 0.0100143 0.00710339
0.00479897 0.00841807 0.00592689
0 0.00695361 0.00262895
0.0020158 0.00625104 0.00407411
0 0.0040177 0.00850214
0.00282886 0.00500166 0.00764243
0.00174949 0.00418488 0.00998778
0.00874367 0.00712922 0.00995904
0.00745559 0.00598608 0.00838035
0.00251509 0.00795628 0.0047245
0.00372381 0.00696168 0.0064423
0.00194145 0.00609001 0.0059127
0.012138 0.00576949 0.00825989
0 0.00718191 0.00711644
0.00194072 0.00578507 -1.40277e-05
0 0.00577432 0.00158701
0.0121632 0.00714777 0.00705546
0.00348737 0.0033648 0.00998047
0.0120702 0.00137271 0.00410564
0.00974704 0.00192693 0.00191583
0.0101896 0.00349186 0.00393791
0.00452595 0.00165791 0.00409981
0.00185451 0.0100124 0.00580185
0.00340102 4.97848e-06 0.00710577
0.0074275 0.00418253 0.00833867
0.0121704 0.00724071 0.00412422
0.0103126 -5.18383e-05 0.0041079
0.00407155 0.00288502 -2.98528e-05
0.00327469 0.00155039 0.00998136
0.00341526 3.39432e-06 0.00280981
0.00584688 0.00521289 0.00752191
0.00385018 0.00316342 0.00314244
0 0.00849157 0.00581511
0.00592364 0.00368415 0.00374875
0.00187715 0.00272103 -1.37086e-05
0.00708182 0.00833169 0.00996515
0.00732604 0.0100059 0.00846926
0.00516353 0.0100119 0.00828864
0.00491105 0.00851456 0.00997281
0.0121868 0.00846017 0.00574899
0.00385267 0.00685251 0.00312597
0 0.00748929 0.00137438
0.00168485 0.00750039 -1.22185e-05
0 0.00287343 0.00335182
0 0.00580816 0.00831736
0 0.00429792 0.00253898
0.00309598 0.00431172 -2.26703e-05
0.00175229 0.00582988 0.00998785
0.00631988 0.0064874 0.00636308
0.00440003 0.00653031 0.00820818
0.00840036 0.00261011 0.00996022
0.00968935 0.00192539 0.00798786
0.00839895 -3.17237e-05 0.00302946
0.00727951 0.0016514 0.00356747
0.0120962 0.00281891 0.00327932
0 0.00140616 0.00256446
0.00779111 0.00823139 0.00637656
0.0070307 0.0014207 -4.9394e-05
0.00732586 0.0035474 0.00155423
0.00387607 0.0100135 0.0058002
0.0104684 0.00998637 0.00577452
0.00310595 0.00141279 -2.25257e-05
0.00720063 -2.10173e-05 0.00144787
0.00768386 0.00829159 0.00356806
0.0103039 -5.10864e-05 0.00577794
0.00749977 0.00165927 0.00632322
0.00170847 0.0025752 0.00998831
0.00868721 0.00717848 -6.21211e-05
0.00632316 0.00770006 0.00212614
0.00724864 0.00610019 0.00155242
0 0.00686719 0.00578184
0.0120711 0.00134185 0.00249028
0.00216335 0.00362285 0.00639334
0.0121911 0.00845461 0.00254702
0.0102384 0.00616978 0.00407109
0.00733765 0.0100044 0.00144256
0.00839087 -3.13694e-05 0.00688173
0.0120676 0.00137326 0.0057562
0.010173 0.00354417 0.0060062
0.00182557 9.66723e-06 0.00580282
0 0.0013659 0.00748679
0.00165738 8.59128e-06 0.00751705
0.0121612 0.00683261 0.00571563
0.00712213 0.00849719 -5.22153e-05
0 0.0075208 0.00859127
0.00167038 0.00749653 0.00998833
0.00518513 0.00821897 0.00359392
0.0105043 0.00998537 0.00745938
0.0121853 0.00859977 0.00746608
0.00696586 0.00157569 0.00996554
0.00879718 0.0041764 0.00995899
0 0.0057735 0.00666667
0.00168271 0.0100108 0.00751714
0 0.00863025 0.00752641
0.0103462 -5.38076e-05 0.00244336
0.0121668 0.00691888 0.00255273
0.0103003 0.00632239 0.00209529
0.0103358 0.00580359 0.00995368
0.00903102 0.00134366 0.00995758
0.0103392 -5.24786e-05 0.00745944
0.0120623 0.00130331 0.00742782
0 0.00143551 0.00581971
0.00719188 -1.96552e-05 0.0084679
0.00507693 -6.09999e-06 0.00336771
0.00963956 0.00468806 0.00197073
0.0121216 0.00425037 0.00246243
0.00519122 0.0100115 0.00663415
0.00348698 0.010015 0.00280826
0.00159008 8.47094e-06 0.00240815
0 0.00727418 0.00419576
0.0121407 0.00573386 0.00660416
0.00854714 0.00999806 0.00302545
0.00916265 0.00863025 0.00995786
0 0.00574334 0.00336387
0 0.0043297 0.00416652
0.00835015 0.00578204 0.00996133
0.0120929 0.00296931 0.00685445
0.00508864 -5.44398e-06 0.00663617
0.00304421 0.0100129 0.00859228
0.00904248 0.00133266 -6.2239e-05
0.00703275 0.00667416 0.00996537
0.0121652 0.0074875 0.00853403
0.0104828 0.00753667 0.00995327
0.00837837 0.00300495 -5.79832e-05
0.00410718 0.00576067 -2.96527e-05
0.00920481 0.00862353 -6.56399e-05
0.00920742 0.00999318 0.00132426
0.0070617 0.00687408 -5.14265e-05
0.00850319 0.0063684 0.00297854
0.00905302 -4.05165e-05 0.00132911
0.00350995 0.00501474 0.00998008
0.00526901 0.0058486 0.00997238
0.00525406 0.0041794 0.00997256
0.00919646 0.00999354 0.00857205
0.00298364 4.57363e-06 0.0085925
0.0121457 0.00570178 0.00328987
0 0.00302218 0.00691532
0.0121064 0.00397044 0.00844543
0.010312 0.0039862 -7.16905e-05
0.0120948 0.00265274 0.00146291
0 0.00244495 0.00857025
0.00299204 0.00858202 0.00998186
0.00904199 -3.90517e-05 0.00857038
0.0102547 0.00258873 0.0099534
0.0107205 0.00416218 0.00995205
0.00695571 0.0100065 0.0057917
0.00634225 0.00759396 0.00499267
0.00692467 0.0100064 0.0041706
0.00853962 0.00999848 0.00687987
0.00368702 0.00693259 0.00997877
0.00507152 0.00434273 -3.60091e-05
0.0034191 3.04506e-06 0.00438327
0.00379942 2.58793e-06 0.00580209
0.0121204 0.00414637 0.00104467
0.00446014 0.00835069 0.00155785
0.0121207 0.00428329 0.0040968
0.00812038 0.00577106 -5.75357e-05
0.010512 0.00998523 0.00243854
0 0.00848692 0.00262374
0.00166065 0.0100106 0.00404799
0 0.00885053 0.00419359
0.00514453 0.00886138 -3.76474e-05
0.00516903 0.0100111 0.00165174
0.00608636 0.00480235 0.00233815
0.00877052 0.00450843 -6.12854e-05
0.00679731 -1.80365e-05 0.00417411
0.00682847 -1.77643e-05 0.00579363
0.00161418 0.0100104 0.00240661
0.0103677 0.00240497 -7.1543e-05
0.0121181 0.00447698 0.00715952
0.0087178 0.00999769 0.0049476
0.00695419 0.00336375 0.00996564
0.00296517 4.27547e-06 0.00133718
0.0120784 0.0023884 0.00851422
0.00292262 0.00480559 0.00498057
0.00708867 0.00433031 -4.95884e-05
0.0101194 0.00578774 -7.10165e-05
0.00671972 0.0100078 0.00718226
0.0121177 0.00428425 0.00576873
0.00663366 0.0100072 0.00273035
0.00856754 -3.30059e-05 0.00495086
0.00348868 0.0100148 0.00438062
0 0.00452174 0.00721958
0.0055158 0.00723429 0.00997112
0.00659516 -1.52008e-05 0.00718281
0.00439505 0.00508993 0.00356787
0.00522548 0.0100119 0.0049743
0.00511994 -6.43609e-06 0.00497737
0.00447596 0.00523329 0.00614574
0 0.005744 0.00499998
0 0.00433013 0.00583333
0.00609733 0.00575672 -4.34127e-05
0.00608627 0.00635174 0.00351453
0.00650816 -1.59961e-05 0.00273498
0.0121435 0.00570297 0.00493218
0.00451006 0.00642462 0.00481414
0.00697681 0.00500688 0.00996572
0.0121475 0.00573263 0.00150686
0 0.00666667 0
0.0104776 0.00750229 -7.42485e-05
0.00401874 -4.29172e-06 -2.51248e-05
0 0.01 0.00666667
0.00612466 0.0100084 0.00996947
0 0.00288419 0.00499914
0.0121762 0.00745588 0.00129299
0.0121628 0.00662887 -8.42374e-05
0 0.005 0.01
0.00606042 0.00288528 -4.30913e-05
0 0.005 0
0.0120433 -7.5039e-05 0.00326199
0.0122065 0.00997297 0.00660331
0.00513305 0.00728895 -3.73896e-05
0.0120939 0.00282994 0.00493243
0.00602459 -1.66208e-05 -3.8906e-05
0 0 0.00666667
0.0046192 0.0036307 0.00519669
0.00601278 -1.38341e-05 0.00996677
0.012038 -7.37901e-05 0.00660569
0 0 0.005
0.0107435 0.00998324 0.00114651
0.0121966 0.008748 0.00113785
0.0120409 -7.40834e-05 0.00493426
0.0121341 0.0049543 -8.37807e-05
0.00148257 0.00122722 -1.08358e-05
0 0.00122008 0.00122008
0 0.00333333 0.01
0 0.00666667 0.01
0.0107247 0.00876119 -7.64447e-05
0.0122124 0.00997231 0.00325814
0.00518205 0.0100114 0.00336448
0.012146 0.00663121 0.00994873
0 0.00333333 0
0 0.00122008 0.00877992
0.00147576 6.28573e-06 0.00876874
0.00148025 0.00122809 0.00999024
0.0107312 0.00998294 0.00873069
0.00149452 0.00878821 0.00998951
0 0.00877992 0.00877992
0.0121851 0.00874934 0.00872373
0.00817716 0.00999969 -5.97385e-05
0.0120684 0.0011532 0.0011416
0.00149872 0.0100088 0.0087707
0.0107102 0.00876168 0.00995313
0.0121178 0.00495748 0.00994862
0 0 0.00333333
0.00803082 -3.27036e-05 -5.20256e-05
0.0105769 -5.79611e-05 0.00115203
0.00146703 6.38733e-06 0.00120364
0 0.00877992 0.00122008
0.00149812 0.00878884 -1.05878e-05
0.00149012 0.010009 0.00120036
0.0120562 0.00115572 0.00872386
0.010583 0.0011715 0.00995178
0.00801733 -2.98622e-05 0.00995861
0.0105989 0.00116867 -7.23033e-05
0.0105651 -5.58255e-05 0.00872867
0.0121058 0.0032796 -8.29954e-05
0.00408827 0.0100105 0.00997859
0.00302735 0.010014 0.00133491
0.00816057 0.00999993 0.00996253
0.0120891 0.00328227 0.00994814
0 0.01 0.005
0.00321982 0.00850099 -2.34387e-05
0.0122098 0.00997283 0.00492996
0 0.01 0.00333333
0 0.00166667 0
0.012045 -7.58301e-05 0.00159069
0 0.00166667 0.01
0 0.00833333 0
0.0121894 0.0083007 -8.62469e-05
0.0120344 -7.38849e-05 0.00827549
0.0122142 0.00997126 0.0015857
0.012203 0.00997215 0.00827611
0.00204771 0.0100091 0.00998737
0 0.01 0.00833333
0.0102026 0.00998725 -7.25123e-05
0.0100393 -5.43172e-05 -6.63615e-05
0.0100239 -5.14127e-05 0.00995203
0.0101863 0.009986 0.0099551
0 0 0.00833333
0.0121738 0.00830145 0.00994848
0.00201231 3.10088e-06 -1.29347e-05
0 0 0.00166667
0.00410163 0.0100128 -3.04536e-05
0.0120599 0.00160458 0.00994753
0.0120763 0.00160189 -8.19902e-05
0.00201002 5.02054e-06 0.00998747
0.00205224 0.0100108 -1.4904e-05
0 0.01 0.00166667
0.0122 0.00997119 0.00994855
0 0 0.01
0.0122152 0.00997085 -8.67794e-05
0.0120304 -7.39687e-05 0.00994562
0 0.01 0.01
0.0120462 -7.73699e-05 -7.98464e-05
0 0.01 0
0 0 0
0.006142 0.010008 -4.56067e-05
0.0040099 -4.28592e-07 0.00997603
0 0.00833333 0.01

CELLS 343 686
1 0
1 1
1 2
1 3
1 4
1 5
1 6
1 7
1 8
1 9
1 10
1 11
1 12
1 13
1 14
1 15
1 16
1 17
1 18
1 19
1 20
1 21
1 22
1 23
1 24
1 25
1 26
1 27
1 28
1 29
1 30
1 31
1 32
1 33
1 34
1 35
1 36
1 37
1 38
1 39
1 40
1 41
1 42
1 43
1 44
1 45
1 46
1 47
1 48
1 49
1 50
1 51
1 52
1 53
1 54
1 55
1 56
1 57
1 58
1 59
1 60
1 61
1 62
1 63
1 64
1 65
1 66
1 67
1 68
1 69
1 70
1 71
1 72
1 73
1 74
1 75
1 76
1 77
1 78
1 79
1 80
1 81
1 82
1 83
1 84
1 85
1 86
1 87
1 88
1 89
1 90
1 91
1 92
1 93
1 94
1 95
1 96
1 97
1 98
1 99
1 100
1 101
1 102
1 103
1 104
1 105
1 106
1 107
1 108
1 109
1 110
1 111
1 112
1 113
1 114
1 115
1 116
1 117
1 118
1 119
1 120
1 121
1 122
1 123
1 124
1 125
1 126
1 127
1 128
1 129
1 130
1 131
1 132
1 133
1 134
1 135
1 136
1 137
1 138
1 139
1 140
1 141
1 142
1 143
1 144
1 145
1 146
1 147
1 148
1 149
1 150
1 151
1 152
1 153
1 154
1 155
1 156
1 157
1 158
1 159
1 160
1 161
1 162
1 163
1 164
1 165
1 166
1 167
1 168
1 169
1 170
1 171
1 172
1 173
1 174
1 175
1 176
1 177
1 178
1 179
1 180
1 181
1 182
1 183
1 184
1 185
1 186
1 187
1 188
1 189
1 190
1 191
1 192
1 193
1 194
1 195
1 196
1 197
1 198
1 199
1 200
1 201
1 202
1 203
1 204
1 205
1 206
1 207
1 208
1 209
1 210
1 211
1 212
1 213
1 214
1 215
1 216
1 217
1 218
1 219
1 220
1 221
1 222
1 223
1 224
1 225
1 226
1 227
1 228
1 229
1 230
1 231
1 232
1 233
1 234
1 235
1 236
1 237
1 238
1 239
1 240
1 241
1 242
1 243
1 244
1 245
1 246
1 247
1 248
1 249
1 250
1 251
1 252
1 253
1 254
1 255
1 256
1 257
1 258
1 259
1 260
1 261
1 262
1 263
1 264
1 265
1 266
1 267
1 268
1 269
1 270
1 271
1 272
1 273
1 274
1 275
1 276
1 277
1 278
1 279
1 280
1 281
1 282
1 283
1 284
1 285
1 286
1 287
1 288
1 289
1 290
1 291
1 292
1 293
1 294
1 295
1 296
1 297
1 298
1 299
1 300
1 301
1 302
1 303
1 304
1 305
1 306
1 307
1 308
1 309
1 310
1 311
1 312
1 313
1 314
1 315
1 316
1 317
1 318
1 319
1 320
1 321
1 322
1 323
1 324
1 325
1 326
1 327
1 328
1 329
1 330
1 331
1 332
1 333
1 334
1 335
1 336
1 337
1 338
1 339
1 340
1 341
1 342

CELL_TYPES 343
1
1
1
1
1
1
1
1
1
1
1
1
1
1
1
1
1
1
1
1
1
1
1
1
1
1
1
1
1
1
1
1
1
1
1
1
1
1
1
1
1
1
1
1
1
1
1
1
1
1
1
1
1
1
1
1
1
1
1
1
1
1
1
1
1
1
1
1
1
1
1
1
1
1
1
1
1
1
1
1
1
1
1
1
1
1
1
1
1
1
1
1
1
1
1
1
1
1
1
1
1
1
1
1
1
1
1
1
1
1
1
1
1
1
1
1
1
1
1
1
1
1
1
1
1
1
1
1
1
1
1
1
1
1
1
1
1
1
1
1
1
1
1
1
1
1
1
1
1
1
1
1
1
1
1
1
1
1
1
1
1
1
1
1
1
1
1
1
1
1
1
1
1
1
1
1
1
1
1
1
1
1
1
1
1
1
1
1
1
1
1
1
1
1
1
1
1
1
1
1
1
1
1
1
1
1
1
1
1
1
1
1
1
1
1
1
1
1
1
1
1
1
1
1
1
1
1
1
1
1
1
1
1
1
1
1
1
1
1
1
1
1
1
1
1
1
1
1
1
1
1
1
1
1
1
1
1
1
1
1
1
1
1
1
1
1
1
1
1
1
1
1
1
1
1
1
1
1
1
1
1
1
1
1
1
1
1
1
1
1
1
1
1
1
1
1
1
1
1
1
1
1
1
1
1
1
1
1
1
1
1
1
1
1
1
1
1
1
1
1
1
1
1
1
1
1
1
1
1
1
1
1
1
1
1
1
1
1
1
1
1
1
1

POINT_DATA 343
FIELD FieldData 3

ExternalForceID_(#) 1 343 int
0
1
2
3
4
5
6
7
8
9
10
11
12
13
14
15
16
17
18
19
20
21
22
23
24
25
26
27
28
29
30
31
32
33
34
35
36
37
38
39
40
41
42
43
44
45
46
47
48
49
50
51
52
53
54
55
56
57
58
59
60
61
62
63
64
65
66
67
68
69
70
71
72
73
74
75
76
77
78
79
80
81
82
83
84
85
86
87
88
89
90
91
92
93
94
95
96
97
98
99
100
101
102
103
104
105
106
107
108
109
110
111
112
113
114
115
116
117
118
119
120
121
122
123
124
125
126
127
128
129
130
131
132
133
134
135
136
137
138
139
140
141
142
143
144
145
146
147
148
149
150
151
152
153
154
155
156
157
158
159
160
161
162
163
164
165
166
167
168
169
170
171
172
173
174
175
176
177
178
179
180
181
182
183
184
185
186
187
188
189
190
191
192
193
194
195
196
197
198
199
200
201
202
203
204
205
206
207
208
209
210
211
212
213
214
215
216
217
218
219
220
221
222
223
224
225
226
227
228
229
230
231
232
233
234
235
236
237
238
239
240
241
242
243
244
245
246
247
248
249
250
251
252
253
254
255
256
257
258
259
260
261
262
263
264
265
266
267
268
269
270
271
272
273
274
275
276
277
278
279
280
281
282
283
284
285
286
287
288
289
290
291
292
293
294
295
296
297
298
299
300
301
302
303
304
305
306
307
308
309
310
311
312
313
314
315
316
317
318
319
320
321
322
323
324
325
326
327
328
329
330
331
332
333
334
335
336
337
338
339
340
341
342

ExternalForceType_(0/1/2/3/4) 1 343 int
0
0
0
0
0
0
0
0
0
0
0
0
0
0
0
0
0
0
0
0
0
0
0
0
0
0
0
0
0
0
0
0
0
0
0
0
0
0
0
0
0
0
0
0
0
0
0
0
0
0
0
0
0
0
0
0
0
0
0
0
0
0
0
0
0
0
0
0
0
0
0
0
0
0
0
0
0
0
0
0
0
0
0
0
0
0
0
0
0
0
0
0
0
0
0
0
0
0
0
0
0
0
0
0
0
0
0
0
0
0
0
0
0
0
0
0
0
0
0
0
0
0
0
0
0
0
0
0
0
0
0
0
0
0
0
0
0
0
0
0
0
0
0
0
0
0
0
0
0
0
0
0
0
0
0
0
0
0
0
0
0
0
0
0
0
0
0
0
0
0
0
0
0
0
0
0
0
0
0
0
0
0
0
0
0
0
0
0
0
0
0
0
0
0
0
0
0
0
0
0
0
0
0
0
0
0
0
0
0
0
0
0
0
0
0
0
0
0
0
0
0
0
0
0
0
0
0
0
0
0
0
0
0
0
0
0
0
0
0
0
0
0
0
0
0
0
0
0
0
0
0
0
0
0
0
0
0
0
0
0
0
0
0
0
0
0
0
0
0
0
0
0
0
0
0
0
0
0
0
0
0
0
0
0
0
0
0
0
0
0
0
0
0
0
0
0
0
0
0
0
0
0
0
0
0
0
0
0
0
0
0
0
0
0
0
0
0
0
0
0
0
0
0
0
0
0
0
0
0
0
0
0
0
0
0
0
0
0
0
0
0
0
0

ExternalForce_(N) 3 343 double
0 -3.09568e-05 0
0 -0.000138619 0
0 -2.16714e-05 0
0 -0.000168226 0
0 -8.26002e-05 0
0 -8.9203e-05 0
0 -9.74165e-05 0
0 -7.37906e-05 0
0 -6.68156e-05 0
0 -5.47617e-05 0
0 -3.04981e-05 0
0 -0.000105531 0
0 -4.77758e-05 0
0 -0.000161821 0
0 -2.96713e-05 0
0 -7.9067e-05 0
0 -6.57564e-05 0
0 -0.000106704 0
0 -4.11017e-05 0
0 -8.006e-05 0
0 -6.02474e-05 0
0 -0.000115662 0
0 -2.18875e-05 0
0 -4.17098e-05 0
0 -0.000107827 0
0 -7.27379e-05 0
0 -4.13856e-05 0
0 -3.85027e-05 0
0 -3.029e-05 0
0 -0.000128774 0
0 -7.57947e-05 0
0 -0.000162261 0
0 -0.000116775 0
0 -7.15802e-05 0
0 -3.74431e-05 0
0 -0.000108892 0
0 -3.74072e-05 0
0 -0.000136493 0
0 -6.25303e-05 0
0 -7.85756e-05 0
0 -7.52544e-05 0
0 -0.000116589 0
0 -0.000160874 0
0 -2.73339e-05 0
0 -8.7662e-05 0
0 -2.53184e-05 0
0 -7.42972e-05 0
0 -4.15199e-05 0
0 -0.000128792 0
0 -3.72945e-05 0
0 -2.72189e-05 0
0 -7.03157e-05 0
0 -0.000119003 0
0 -5.02041e-05 0
0 -8.04153e-05 0
0 -4.4939e-05 0
0 -2.74192e-05 0
0 -3.19929e-05 0
0 -4.04607e-05 0
0 -2.07889e-05 0
0 -3.28809e-05 0
0 -3.54797e-05 0
0 -0.000153858 0
0 -7.19739e-05 0
0 -8.09026e-05 0
0 -4.90862e-05 0
0 -2.77255e-05 0
0 -7.06591e-05 0
0 -3.20606e-05 0
0 -4.10794e-05 0
0 -1.98932e-05 0
0 -2.37551e-05 0
0 -3.0591e-05 0
0 -5.86107e-05 0
0 -5.75946e-05 0
0 -4.01595e-05 0
0 -5.35099e-05 0
0 -2.24477e-05 0
0 -4.41213e-05 0
0 -4.29866e-05 0
0 -4.42325e-05 0
0 -4.30889e-05 0
0 -4.19155e-05 0
0 -5.21923e-05 0
0 -1.5029e-05 0
0 -2.34331e-05 0
0 -1.9903e-05 0
0 -4.30461e-05 0
0 -3.11931e-05 0
0 -3.08326e-05 0
0 -4.52797e-05 0
0 -5.7648e-05 0
0 -8.02544e-05 0
0 -2.43623e-05 0
0 -0.000150893 0
0 -3.43039e-05 0
0 -7.21258e-05 0
0 -1.97489e-05 0
0 -2.00202e-05 0
0 -7.83017e-05 0
0 -4.32908e-05 0
0 -7.00326e-05 0
0 -1.17841e-05 0
0 -4.93779e-05 0
0 -1.58193e-05 0
0 -4.04762e-05 0
0 -8.57147e-05 0
0 -4.2953e-05 0
0 -7.82027e-05 0
0 -2.09499e-05 0
0 -3.31713e-05 0
0 -9.30599e-05 0
0 -7.26197e-05 0
0 -1.76801e-05 0
0 -2.06228e-05 0
0 -7.8371e-05 0
0 -1.84411e-05 0
0 -7.30662e-05 0
0 -4.11806e-05 0
0 -2.3265e-05 0
0 -4.23503e-05 0
0 -5.94919e-05 0
0 -4.22718e-05 0
0 -2.12723e-05 0
0 -1.86252e-05 0
0 -1.77849e-05 0
0 -3.82356e-05 0
0 -2.39658e-05 0
0 -1.62481e-05 0
0 -7.86148e-05 0
0 -1.61387e-05 0
0 -2.34763e-05 0
0 -2.95637e-05 0
0 -2.93742e-05 0
0 -1.33947e-05 0
0 -1.83735e-05 0
0 -2.05639e-05 0
0 -1.91062e-05 0
0 -1.84053e-05 0
0 -6.25793e-05 0
0 -4.49914e-05 0
0 -1.98914e-05 0
0 -1.58922e-05 0
0 -2.367e-05 0
0 -3.81266e-05 0
0 -4.36518e-05 0
0 -2.25472e-05 0
0 -0.000115119 0
0 -3.05886e-05 0
0 -1.32828e-05 0
0 -3.38507e-05 0
0 -1.78391e-05 0
0 -2.88237e-05 0
0 -1.34771e-05 0
0 -2.36876e-05 0
0 -2.06453e-05 0
0 -2.58912e-05 0
0 -2.10097e-05 0
0 -1.7602e-05 0
0 -3.13896e-05 0
0 -1.34386e-05 0
0 -2.38863e-05 0
0 -2.04203e-05 0
0 -1.33426e-05 0
0 -2.13076e-05 0
0 -1.86316e-05 0
0 -3.10974e-05 0
0 -2.56228e-05 0
0 -2.33161e-05 0
0 -1.57181e-05 0
0 -1.87061e-05 0
0 -5.38771e-05 0
0 -1.84308e-05 0
0 -3.08341e-05 0
0 -2.91652e-05 0
0 -1.16203e-05 0
0 -1.85667e-05 0
0 -2.00287e-05 0
0 -2.68375e-05 0
0 -2.37799e-05 0
0 -3.16945e-05 0
0 -3.13676e-05 0
0 -3.15313e-05 0
0 -1.90796e-05 0
0 -1.58134e-05 0
0 -1.83326e-05 0
0 -3.16308e-05 0
0 -2.07128e-05 0
0 -2.91276e-05 0
0 -6.03597e-05 0
0 -2.26581e-05 0
0 -2.35174e-05 0
0 -2.33506e-05 0
0 -2.59482e-05 0
0 -1.63393e-05 0
0 -1.78912e-05 0
0 -2.02658e-05 0
0 -5.62379e-05 0
0 -2.04507e-05 0
0 -2.14176e-05 0
0 -2.38895e-05 0
0 -3.05955e-05 0
0 -3.11287e-05 0
0 -2.01544e-05 0
0 -1.92198e-05 0
0 -2.99909e-05 0
0 -6.32085e-05 0
0 -2.04829e-05 0
0 -2.67435e-05 0
0 -2.11611e-05 0
0 -1.83262e-05 0
0 -1.96474e-05 0
0 -2.0699e-05 0
0 -2.83503e-05 0
0 -2.27807e-05 0
0 -2.35234e-05 0
0 -1.93874e-05 0
0 -6.29086e-05 0
0 -2.12117e-05 0
0 -3.22943e-05 0
0 -2.06229e-05 0
0 -2.61501e-05 0
0 -1.90721e-05 0
0 -2.86319e-05 0
0 -2.53212e-05 0
0 -2.07681e-05 0
0 -2.05553e-05 0
0 -1.88077e-05 0
0 -6.92631e-05 0
0 -2.20924e-05 0
0 -2.02457e-05 0
0 -6.16224e-05 0
0 -2.08117e-05 0
0 -2.85397e-05 0
0 -2.08875e-05 0
0 -6.32617e-05 0
0 -1.39008e-05 0
0 -2.0289e-05 0
0 -6.45558e-05 0
0 -2.47785e-05 0
0 -2.35177e-05 0
0 -7.28089e-06 0
0 -2.18143e-05 0
0 -6.93323e-06 0
0 -6.87344e-06 0
0 -8.76768e-06 0
0 -2.48719e-05 0
0 -2.22231e-05 0
0 -1.31068e-05 0
0 -7.69816e-06 0
0 -2.27889e-05 0
0 -5.95166e-06 0
0 -6.55579e-06 0
0 -6.71305e-06 0
0 -2.46468e-05 0
0 -2.27228e-05 0
0 -7.6878e-06 0
0 -6.67903e-06 0
0 -6.10861e-05 0
0 -6.6189e-06 0
0 -6.52665e-06 0
0 -6.87836e-06 0
0 -1.78856e-05 0
0 -1.87072e-05 0
0 -6.73674e-06 0
0 -6.91401e-06 0
0 -1.82903e-05 0
0 -2.2423e-05 0
0 -6.67521e-06 0
0 -7.02401e-06 0
0 -1.78908e-05 0
0 -5.89658e-06 0
0 -1.98938e-05 0
0 -7.3162e-06 0
0 -5.63509e-06 0
0 -1.76631e-05 0
0 -1.42638e-05 0
0 -2.22707e-05 0
0 -1.77204e-05 0
0 -2.11264e-05 0
0 -1.75686e-05 0
0 -1.76047e-05 0
0 -6.69346e-06 0
0 -2.20467e-05 0
0 -1.42479e-05 0
0 -1.76144e-05 0
0 -6.84615e-06 0
0 -6.12404e-06 0
0 -6.50125e-06 0
0 -1.41879e-05 0
0 -1.37476e-05 0
0 -2.11168e-05 0
0 -1.79377e-05 0
0 -1.37282e-05 0
0 -1.41198e-05 0
0 -2.15061e-05 0
0 -6.84475e-06 0
0 -1.74349e-05 0
0 -1.75758e-05 0
0 -6.41828e-06 0
0 -7.20025e-06 0
0 -2.30432e-05 0
0 -6.96894e-06 0
0 -6.44499e-06 0
0 -6.14414e-06 0
0 -2.14766e-05 0
0 -6.00855e-06 0
0 -5.92427e-06 0
0 -5.81567e-06 0
0 -5.02303e-06 0
0 -5.01945e-06 0
0 -4.85271e-06 0
0 -4.87573e-06 0
0 -4.8684e-06 0
0 -5.22951e-06 0
0 -4.84801e-06 0
0 -4.88396e-06 0
0 -4.77612e-06 0
0 -4.81304e-06 0
0 -4.85251e-06 0
0 -4.8555e-06 0
0 -4.82575e-06 0
0 -4.80313e-06 0
0 -4.86923e-06 0
0 -4.85781e-06 0
0 -4.73027e-06 0
0 -1.08748e-05 0
0 -5.22863e-06 0
0 -5.34413e-06 0
0 -5.26459e-06 0
0 -5.05624e-06 0
0 -4.92238e-06 0
0 -5.43253e-06 0
0 -5.43253e-06 0
0 -5.43253e-06 0
0 -5.43253e-06 0
0 -5.43253e-06 0
0 -5.43253e-06 0
0 -5.40321e-06 0
0 -5.40321e-06 0
0 -7.3113e-06 0
0 -6.98147e-06 0
0 -4.8949e-06 0

