# vtk DataFile Version 4.2
vtk output
ASCII
DATASET UNSTRUCTURED_GRID

POINTS 343 double
0.00112248 0.00419492 8.97425e-08
0.00217106 0.00498252 0.00217533
0 0.00419538 0.00112517
0.00193006 0.00195445 0.00194214
0.00516955 0.00240682 0.00503204
0.00517233 0.00383001 0.0063973
0.00762272 0.00477534 0.00499846
0.0062246 0.00485036 0.0036915
0.00683646 0.00328853 0.00691354
0.00499112 0.00499251 0.00499962
0.00418072 0.00111809 0.00999892
0.00528124 0.00208021 0.00790378
0.00419053 -7.48323e-06 0.00831698
0.00201251 0.00200248 0.00803323
0.0042865 0.00253286 0.00999895
0.00695679 0.00644671 0.00694645
0.00641383 0.00618236 0.00518271
0.00226066 0.00218463 0.00514608
0 0.00143586 0.00417514
0.0015946 0.00346615 0.00403702
0.00683715 0.00319385 0.00316116
0.00774556 0.0022129 0.00506344
0 0.00270918 0.00154168
0.00415811 0.00142847 1.25051e-07
0.00500774 0.00218777 0.00219784
0.00396241 0.00352669 0.00160304
0.00134541 -6.10576e-07 0.00406001
0.0041833 -7.85183e-06 0.00168818
0.00262611 0.00695164 1.31491e-07
0.00193823 0.00805273 0.0019449
0.00408755 0.00624805 0.00164503
0.0080033 0.00798578 0.00799657
0.00796521 0.00481542 0.00802161
0.00838851 0.00607938 0.00594724
0.00999915 0.0088251 0.004191
0.00757704 0.00763548 0.00496314
0.00856703 0.00997968 0.0041658
0.00797645 0.00797089 0.00201543
0.00353619 0.00303653 0.00695941
0.00443768 0.00366188 0.00832378
0.0038925 0.0016005 0.00596891
0.00500577 0.00766822 0.00767639
0.00198974 0.00800788 0.00798961
0.00282761 0.00999726 0.00712709
0.00391673 0.00839947 0.00595769
0 0.00695361 0.00262895
0.00164651 0.00623926 0.00408788
0 0.0040177 0.00850214
0.00231517 0.00498571 0.00766146
0.00143342 0.00417448 0.00999994
0.00717545 0.0071179 0.00999721
0.00611854 0.00597063 0.00841688
0.00205191 0.00794142 0.00474182
0.00304384 0.00694289 0.00646764
0.00158699 0.00607835 0.005926
0.00998957 0.00578329 0.00831354
0 0.00718191 0.00711644
0.00158451 0.00577344 4.90338e-08
0 0.00577432 0.00158701
0.00999426 0.007157 0.00711301
0.00286777 0.00334929 0.0099996
0.00997028 0.00140854 0.00417312
0.00803616 0.00194262 0.00197842
0.00838937 0.0035018 0.00399754
0.00372586 0.00164798 0.00412824
0.0015094 0.00999967 0.00581501
0.00280979 -3.61551e-06 0.00712764
0.00611017 0.00417133 0.00837536
0.00999298 0.00724904 0.00419331
0.00852866 -2.24747e-05 0.00416667
0.00334152 0.00286965 1.04006e-07
0.00270058 0.00153883 0.00999963
0.00281844 -4.00169e-06 0.002832
0.00479816 0.00519402 0.00755392
0.00315819 0.00314627 0.00316731
0 0.00849157 0.00581511
0.00486481 0.00366946 0.003786
0.001537 0.00270866 3.80185e-08
0.00580025 0.00831583 0.00999788
0.00598526 0.00998915 0.00850438
0.00421438 0.009994 0.00831704
0.00401824 0.00849828 0.00999872
0.00999863 0.00846642 0.00581201
0.00314742 0.00683353 0.00315082
0 0.00748929 0.00137438
0.00137333 0.00748898 2.36672e-08
0 0.00287343 0.00335182
0 0.00580816 0.00831736
0 0.00429792 0.00253898
0.00253341 0.00429591 1.44038e-07
0.00143403 0.00581917 0.00999995
0.0051756 0.00646853 0.00639975
0.00360361 0.00650936 0.00823364
0.00693309 0.00261285 0.00999755
0.00800005 0.00193951 0.00803326
0.00694198 -1.67391e-05 0.00308141
0.0060008 0.00165232 0.00361239
0.00997536 0.00284701 0.00335003
0 0.00140616 0.00256446
0.00637356 0.00821658 0.00641979
0.00579636 0.00142317 1.87875e-07
0.00602188 0.00354088 0.00160293
0.00315722 0.00999646 0.00582503
0.00856256 0.00997986 0.00583087
0.00255389 0.00140299 1.53055e-07
0.00594992 -1.33221e-05 0.00149429
0.00628026 0.0082766 0.00361653
0.0085243 -2.22928e-05 0.00583145
0.00618701 0.00166043 0.00636426
0.00140247 0.00256406 0.01
0.00711072 0.00716762 -5.51983e-07
0.00516496 0.00768221 0.00216857
0.00593609 0.00608374 0.0016015
0 0.00686719 0.00578184
0.00996929 0.00137863 0.002563
0.00177236 0.00360989 0.00640783
0.00999696 0.00846143 0.00262165
0.00840338 0.00617032 0.0041312
0.00598263 0.00998848 0.00149326
0.00694247 -1.64423e-05 0.00692502
0.00997121 0.00140836 0.00581701
0.00837969 0.00355375 0.00605888
0.00150197 -7.72609e-07 0.00581518
0 0.0013659 0.00748679
0.00136383 -6.44992e-07 0.0075289
0.00999226 0.00684221 0.00577884
0.00581475 0.0084811 -3.29438e-07
0 0.0075208 0.00859127
0.00136528 0.00748644 0.00999987
0.00423093 0.00820027 0.00362802
0.00859632 0.00997973 0.00750927
0.0100002 0.00860522 0.00752268
0.0057559 0.00157553 0.00999811
0.00724631 0.0041734 0.00999734
0 0.0057735 0.00666667
0.00137039 0.00999961 0.00752891
0 0.00863025 0.00752641
0.00855444 -2.2905e-05 0.00250655
0.00999091 0.00692831 0.00262699
0.00845013 0.0063228 0.0021617
0.008501 0.00580486 0.00999661
0.00746657 0.00135676 0.00999716
0.00855793 -2.25072e-05 0.00750943
0.00997183 0.00133883 0.00748341
0 0.00143551 0.00581971
0.00595292 -1.28456e-05 0.00850431
0.00419331 -7.88931e-06 0.00339986
0.00791982 0.0046901 0.00203358
0.00998044 0.00427214 0.00253728
0.00423177 0.00999378 0.0066659
0.00283651 0.00999731 0.00283185
0.00130702 -6.67518e-07 0.00241832
0 0.00727418 0.00419576
0.00998844 0.00574855 0.00666339
0.00697731 0.00998525 0.00308051
0.00750918 0.00862132 0.00999702
0 0.00574334 0.00336387
0 0.0043297 0.00416652
0.00686277 0.00577143 0.00999754
0.00997788 0.00299616 0.00691207
0.00420642 -7.67711e-06 0.00666625
0.00248064 0.00999766 0.00861128
0.0074591 0.00134766 -1.47966e-07
0.00577105 0.00665758 0.00999792
0.00999645 0.00749599 0.00858726
0.00860634 0.00753428 0.00999647
0.00689456 0.00300731 -1.58354e-08
0.00335863 0.00574044 1.9866e-07
0.00752532 0.00861396 -8.09015e-07
0.00751879 0.00998302 0.00138627
0.00577642 0.00685754 -2.49904e-07
0.00696789 0.00635741 0.0030325
0.00748231 -1.90915e-05 0.00138737
0.00288077 0.00499715 0.00999949
0.00432599 0.00582865 0.00999872
0.00432194 0.00416152 0.00999879
0.00752224 0.00998361 0.00861335
0.00246525 -3.04475e-06 0.00861147
0.00998644 0.00571808 0.00336185
0 0.00302218 0.00691532
0.0099826 0.00399234 0.00849834
0.0084822 0.00399731 -5.44515e-07
0.00997381 0.0026824 0.00154043
0 0.00244495 0.00857025
0.00244626 0.0085682 0.00999941
0.0074859 -1.85713e-05 0.00861324
0.00846694 0.00260355 0.00999662
0.00883641 0.00417302 0.00999642
0.00567553 0.00998977 0.00583222
0.00518492 0.00757584 0.00503168
0.00564721 0.00998971 0.00421439
0.00697769 0.00998559 0.00692467
0.00302102 0.00691333 0.00999925
0.00415686 0.00432465 2.42383e-07
0.00282153 -4.12719e-06 0.00440469
0.00313786 -4.60852e-06 0.00582545
0.00997935 0.00416932 0.00112389
0.00363771 0.0083332 0.00158817
0.00998144 0.00430408 0.00416433
0.00665627 0.00576084 -1.76407e-07
0.00859298 0.00997933 0.00250544
0 0.00848692 0.00262374
0.00135209 0.00999965 0.00405986
0 0.00885053 0.00419359
0.00419446 0.00884433 -3.59333e-08
0.00420834 0.00999358 0.00168749
0.00498967 0.00478445 0.00237866
0.0072037 0.00450652 -1.89321e-07
0.00561638 -1.22229e-05 0.00421519
0.00564476 -1.21538e-05 0.00583267
0.00131355 0.00999967 0.00241806
0.00854419 0.00242347 -4.47372e-07
0.00998386 0.00449647 0.00721616
0.00712018 0.00998496 0.00499866
0.00573069 0.00335419 0.00999815
0.00244561 -3.24666e-06 0.00135671
0.00997653 0.00241858 0.00856652
0.00239178 0.00478979 0.00499987
0.0058194 0.00431988 1.17798e-07
0.00830466 0.0057891 -7.39808e-07
0.00548485 0.00999052 0.0072192
0.00998232 0.00430467 0.00583048
0.00540698 0.00999031 0.00277496
0.00708451 -1.70365e-05 0.00499938
0.00283908 0.00999732 0.00440427
0 0.00452174 0.00721958
0.00452058 0.00721456 0.00999856
0.00545466 -1.13601e-05 0.00721919
0.00359792 0.00507049 0.00359642
0.00425627 0.00999372 0.00500768
0.00423025 -7.8591e-06 0.00500833
0.00366631 0.00521348 0.00617431
0 0.005744 0.00499998
0 0.00433013 0.00583333
0.00499213 0.00573716 1.36984e-07
0.00498015 0.00633238 0.00355344
0.0053767 -1.15594e-05 0.00277587
0.00998736 0.00571893 0.00499734
0.00368784 0.00640441 0.0048437
0.00573646 0.00499126 0.00999808
0.00998569 0.00574885 0.00158548
0 0.00666667 0
0.00858485 0.00750085 -1.08524e-06
0.00331616 -6.11006e-06 7.57886e-07
0 0.01 0.00666667
0.00500678 0.0099916 0.00999852
0 0.00288419 0.00499914
0.00999241 0.00746386 0.00137274
0.00998856 0.00664115 -1.48834e-06
0 0.005 0.01
0.00498291 0.00287578 1.54782e-07
0 0.005 0
0.00996423 -2.831e-05 0.00333176
0.0100051 0.00997416 0.00666312
0.00419274 0.00726902 4.21677e-08
0.00997622 0.00285799 0.00499671
0.00497565 -1.09125e-05 6.75439e-07
0 0 0.00666667
0.00379048 0.0036127 0.00522612
0.0049793 -1.03772e-05 0.00999812
0.00996606 -2.80341e-05 0.00666364
0 0 0.005
0.00878347 0.00997839 0.00121859
0.00999745 0.00875409 0.0012183
0.00996511 -2.81258e-05 0.00499772
0.00998203 0.00497404 -1.24631e-06
0.00121552 0.00121926 -6.01446e-09
0 0.00122008 0.00122008
0 0.00333333 0.01
0 0.00666667 0.01
0.00877822 0.00875873 -1.32462e-06
0.0100033 0.0099738 0.00333082
0.00421914 0.00999367 0.00339925
0.00999386 0.00664197 0.00999581
0 0.00333333 0
0 0.00122008 0.00877992
0.00121507 -8.20235e-07 0.00877967
0.00121627 0.00121952 0.0100001
0.00878736 0.00997897 0.00877661
0.0012201 0.00877946 0.00999987
0 0.00877992 0.00877992
0.0100016 0.00875482 0.00877587
0.00667078 0.00998586 -9.1938e-07
0.00996782 0.00119222 0.00121907
0.00122104 0.00999945 0.00878006
0.00878347 0.00875952 0.00999642
0.00998729 0.00497497 0.00999584
0 0 0.00333333
0.00663619 -1.62069e-05 4.74705e-07
0.00874475 -2.38764e-05 0.00121979
0.00120595 -8.67553e-07 0.00121207
0 0.00877992 0.00122008
0.00121983 0.0087794 9.76058e-08
0.00121219 0.00999951 0.00121141
0.00997191 0.00119283 0.00877599
0.0087541 0.00119745 0.00999637
0.00664088 -1.56895e-05 0.00999712
0.00874881 0.00119682 -3.85095e-07
0.00874883 -2.3339e-05 0.00877641
0.00997557 0.00330677 -1.05019e-06
0.00333833 0.00999555 0.00999946
0.0024615 0.00999786 0.00135629
0.00667504 0.00998657 0.00999773
0.00998077 0.00330769 0.00999584
0 0.01 0.005
0.00262366 0.00848462 1.28964e-07
0.0100042 0.00997399 0.00499705
0 0.01 0.00333333
0 0.00166667 0
0.00996336 -2.85655e-05 0.00166571
0 0.00166667 0.01
0 0.00833333 0
0.00999519 0.0083075 -1.71801e-06
0.00996699 -2.80911e-05 0.00832943
0.0100025 0.00997359 0.00166464
0.010006 0.0099742 0.0083294
0.00166905 0.00999851 0.00999986
0 0.01 0.00833333
0.00833678 0.00997987 -1.35821e-06
0.00829861 -2.249e-05 -4.19687e-08
0.00830383 -2.19254e-05 0.00999634
0.00834164 0.00998046 0.00999674
0 0 0.00833333
0.0100005 0.00830836 0.00999576
0.00165782 -2.13594e-06 2.44776e-07
0 0 0.00166667
0.00333696 0.0099957 -4.03446e-08
0.00997429 0.00163959 0.00999577
0.00996903 0.00163892 -9.07433e-07
0.00165923 -1.74125e-06 0.00999995
0.00166836 0.0099988 4.56106e-08
0 0.01 0.00166667
0.010007 0.00997423 0.00999583
0 0 0.01
0.0100017 0.00997341 -2.00638e-06
0.00996786 -2.82004e-05 0.00999548
0 0.01 0.01
0.00996254 -2.87743e-05 -6.45277e-07
0 0.01 0
0 0 0
0.00500407 0.00999111 -4.02665e-07
0.00331881 -5.49989e-06 0.00999894
0 0.00833333 0.01

CELLS 343 686
1 0
1 1
1 2
1 3
1 4
1 5
1 6
1 7
1 8
1 9
1 10
1 11
1 12
1 13
1 14
1 15
1 16
1 17
1 18
1 19
1 20
1 21
1 22
1 23
1 24
1 25
1 26
1 27
1 28
1 29
1 30
1 31
1 32
1 33
1 34
1 35
1 36
1 37
1 38
1 39
1 40
1 41
1 42
1 43
1 44
1 45
1 46
1 47
1 48
1 49
1 50
1 51
1 52
1 53
1 54
1 55
1 56
1 57
1 58
1 59
1 60
1 61
1 62
1 63
1 64
1 65
1 66
1 67
1 68
1 69
1 70
1 71
1 72
1 73
1 74
1 75
1 76
1 77
1 78
1 79
1 80
1 81
1 82
1 83
1 84
1 85
1 86
1 87
1 88
1 89
1 90
1 91
1 92
1 93
1 94
1 95
1 96
1 97
1 98
1 99
1 100
1 101
1 102
1 103
1 104
1 105
1 106
1 107
1 108
1 109
1 110
1 111
1 112
1 113
1 114
1 115
1 116
1 117
1 118
1 119
1 120
1 121
1 122
1 123
1 124
1 125
1 126
1 127
1 128
1 129
1 130
1 131
1 132
1 133
1 134
1 135
1 136
1 137
1 138
1 139
1 140
1 141
1 142
1 143
1 144
1 145
1 146
1 147
1 148
1 149
1 150
1 151
1 152
1 153
1 154
1 155
1 156
1 157
1 158
1 159
1 160
1 161
1 162
1 163
1 164
1 165
1 166
1 167
1 168
1 169
1 170
1 171
1 172
1 173
1 174
1 175
1 176
1 177
1 178
1 179
1 180
1 181
1 182
1 183
1 184
1 185
1 186
1 187
1 188
1 189
1 190
1 191
1 192
1 193
1 194
1 195
1 196
1 197
1 198
1 199
1 200
1 201
1 202
1 203
1 204
1 205
1 206
1 207
1 208
1 209
1 210
1 211
1 212
1 213
1 214
1 215
1 216
1 217
1 218
1 219
1 220
1 221
1 222
1 223
1 224
1 225
1 226
1 227
1 228
1 229
1 230
1 231
1 232
1 233
1 234
1 235
1 236
1 237
1 238
1 239
1 240
1 241
1 242
1 243
1 244
1 245
1 246
1 247
1 248
1 249
1 250
1 251
1 252
1 253
1 254
1 255
1 256
1 257
1 258
1 259
1 260
1 261
1 262
1 263
1 264
1 265
1 266
1 267
1 268
1 269
1 270
1 271
1 272
1 273
1 274
1 275
1 276
1 277
1 278
1 279
1 280
1 281
1 282
1 283
1 284
1 285
1 286
1 287
1 288
1 289
1 290
1 291
1 292
1 293
1 294
1 295
1 296
1 297
1 298
1 299
1 300
1 301
1 302
1 303
1 304
1 305
1 306
1 307
1 308
1 309
1 310
1 311
1 312
1 313
1 314
1 315
1 316
1 317
1 318
1 319
1 320
1 321
1 322
1 323
1 324
1 325
1 326
1 327
1 328
1 329
1 330
1 331
1 332
1 333
1 334
1 335
1 336
1 337
1 338
1 339
1 340
1 341
1 342

CELL_TYPES 343
1
1
1
1
1
1
1
1
1
1
1
1
1
1
1
1
1
1
1
1
1
1
1
1
1
1
1
1
1
1
1
1
1
1
1
1
1
1
1
1
1
1
1
1
1
1
1
1
1
1
1
1
1
1
1
1
1
1
1
1
1
1
1
1
1
1
1
1
1
1
1
1
1
1
1
1
1
1
1
1
1
1
1
1
1
1
1
1
1
1
1
1
1
1
1
1
1
1
1
1
1
1
1
1
1
1
1
1
1
1
1
1
1
1
1
1
1
1
1
1
1
1
1
1
1
1
1
1
1
1
1
1
1
1
1
1
1
1
1
1
1
1
1
1
1
1
1
1
1
1
1
1
1
1
1
1
1
1
1
1
1
1
1
1
1
1
1
1
1
1
1
1
1
1
1
1
1
1
1
1
1
1
1
1
1
1
1
1
1
1
1
1
1
1
1
1
1
1
1
1
1
1
1
1
1
1
1
1
1
1
1
1
1
1
1
1
1
1
1
1
1
1
1
1
1
1
1
1
1
1
1
1
1
1
1
1
1
1
1
1
1
1
1
1
1
1
1
1
1
1
1
1
1
1
1
1
1
1
1
1
1
1
1
1
1
1
1
1
1
1
1
1
1
1
1
1
1
1
1
1
1
1
1
1
1
1
1
1
1
1
1
1
1
1
1
1
1
1
1
1
1
1
1
1
1
1
1
1
1
1
1
1
1
1
1
1
1
1
1
1
1
1
1
1
1
1
1
1
1
1
1
1
1
1
1
1
1
1
1
1
1
1
1

POINT_DATA 343
FIELD FieldData 3

ExternalForceID_(#) 1 343 int
0
1
2
3
4
5
6
7
8
9
10
11
12
13
14
15
16
17
18
19
20
21
22
23
24
25
26
27
28
29
30
31
32
33
34
35
36
37
38
39
40
41
42
43
44
45
46
47
48
49
50
51
52
53
54
55
56
57
58
59
60
61
62
63
64
65
66
67
68
69
70
71
72
73
74
75
76
77
78
79
80
81
82
83
84
85
86
87
88
89
90
91
92
93
94
95
96
97
98
99
100
101
102
103
104
105
106
107
108
109
110
111
112
113
114
115
116
117
118
119
120
121
122
123
124
125
126
127
128
129
130
131
132
133
134
135
136
137
138
139
140
141
142
143
144
145
146
147
148
149
150
151
152
153
154
155
156
157
158
159
160
161
162
163
164
165
166
167
168
169
170
171
172
173
174
175
176
177
178
179
180
181
182
183
184
185
186
187
188
189
190
191
192
193
194
195
196
197
198
199
200
201
202
203
204
205
206
207
208
209
210
211
212
213
214
215
216
217
218
219
220
221
222
223
224
225
226
227
228
229
230
231
232
233
234
235
236
237
238
239
240
241
242
243
244
245
246
247
248
249
250
251
252
253
254
255
256
257
258
259
260
261
262
263
264
265
266
267
268
269
270
271
272
273
274
275
276
277
278
279
280
281
282
283
284
285
286
287
288
289
290
291
292
293
294
295
296
297
298
299
300
301
302
303
304
305
306
307
308
309
310
311
312
313
314
315
316
317
318
319
320
321
322
323
324
325
326
327
328
329
330
331
332
333
334
335
336
337
338
339
340
341
342

ExternalForceType_(0/1/2/3/4) 1 343 int
0
0
0
0
0
0
0
0
0
0
0
0
0
0
0
0
0
0
0
0
0
0
0
0
0
0
0
0
0
0
0
0
0
0
0
0
0
0
0
0
0
0
0
0
0
0
0
0
0
0
0
0
0
0
0
0
0
0
0
0
0
0
0
0
0
0
0
0
0
0
0
0
0
0
0
0
0
0
0
0
0
0
0
0
0
0
0
0
0
0
0
0
0
0
0
0
0
0
0
0
0
0
0
0
0
0
0
0
0
0
0
0
0
0
0
0
0
0
0
0
0
0
0
0
0
0
0
0
0
0
0
0
0
0
0
0
0
0
0
0
0
0
0
0
0
0
0
0
0
0
0
0
0
0
0
0
0
0
0
0
0
0
0
0
0
0
0
0
0
0
0
0
0
0
0
0
0
0
0
0
0
0
0
0
0
0
0
0
0
0
0
0
0
0
0
0
0
0
0
0
0
0
0
0
0
0
0
0
0
0
0
0
0
0
0
0
0
0
0
0
0
0
0
0
0
0
0
0
0
0
0
0
0
0
0
0
0
0
0
0
0
0
0
0
0
0
0
0
0
0
0
0
0
0
0
0
0
0
0
0
0
0
0
0
0
0
0
0
0
0
0
0
0
0
0
0
0
0
0
0
0
0
0
0
0
0
0
0
0
0
0
0
0
0
0
0
0
0
0
0
0
0
0
0
0
0
0
0
0
0
0
0
0
0
0
0
0
0
0
0
0
0
0
0
0
0
0
0
0
0
0
0
0
0
0
0
0
0
0
0
0
0
0

ExternalForce_(N) 3 343 double
0 -3.09568e-05 0
0 -0.000138619 0
0 -2.16714e-05 0
0 -0.000168226 0
0 -8.26002e-05 0
0 -8.9203e-05 0
0 -9.74165e-05 0
0 -7.37906e-05 0
0 -6.68156e-05 0
0 -5.47617e-05 0
0 -3.04981e-05 0
0 -0.000105531 0
0 -4.77758e-05 0
0 -0.000161821 0
0 -2.96713e-05 0
0 -7.9067e-05 0
0 -6.57564e-05 0
0 -0.000106704 0
0 -4.11017e-05 0
0 -8.006e-05 0
0 -6.02474e-05 0
0 -0.000115662 0
0 -2.18875e-05 0
0 -4.17098e-05 0
0 -0.000107827 0
0 -7.27379e-05 0
0 -4.13856e-05 0
0 -3.85027e-05 0
0 -3.029e-05 0
0 -0.000128774 0
0 -7.57947e-05 0
0 -0.000162261 0
0 -0.000116775 0
0 -7.15802e-05 0
0 -3.74431e-05 0
0 -0.000108892 0
0 -3.74072e-05 0
0 -0.000136493 0
0 -6.25303e-05 0
0 -7.85756e-05 0
0 -7.52544e-05 0
0 -0.000116589 0
0 -0.000160874 0
0 -2.73339e-05 0
0 -8.7662e-05 0
0 -2.53184e-05 0
0 -7.42972e-05 0
0 -4.15199e-05 0
0 -0.000128792 0
0 -3.72945e-05 0
0 -2.72189e-05 0
0 -7.03157e-05 0
0 -0.000119003 0
0 -5.02041e-05 0
0 -8.04153e-05 0
0 -4.4939e-05 0
0 -2.74192e-05 0
0 -3.19929e-05 0
0 -4.04607e-05 0
0 -2.07889e-05 0
0 -3.28809e-05 0
0 -3.54797e-05 0
0 -0.000153858 0
0 -7.19739e-05 0
0 -8.09026e-05 0
0 -4.90862e-05 0
0 -2.77255e-05 0
0 -7.06591e-05 0
0 -3.20606e-05 0
0 -4.10794e-05 0
0 -1.98932e-05 0
0 -2.37551e-05 0
0 -3.0591e-05 0
0 -5.86107e-05 0
0 -5.75946e-05 0
0 -4.01595e-05 0
0 -5.35099e-05 0
0 -2.24477e-05 0
0 -4.41213e-05 0
0 -4.29866e-05 0
0 -4.42325e-05 0
0 -4.30889e-05 0
0 -4.19155e-05 0
0 -5.21923e-05 0
0 -1.5029e-05 0
0 -2.34331e-05 0
0 -1.9903e-05 0
0 -4.30461e-05 0
0 -3.11931e-05 0
0 -3.08326e-05 0
0 -4.52797e-05 0
0 -5.7648e-05 0
0 -8.02544e-05 0
0 -2.43623e-05 0
0 -0.000150893 0
0 -3.43039e-05 0
0 -7.21258e-05 0
0 -1.97489e-05 0
0 -2.00202e-05 0
0 -7.83017e-05 0
0 -4.32908e-05 0
0 -7.00326e-05 0
0 -1.17841e-05 0
0 -4.93779e-05 0
0 -1.58193e-05 0
0 -4.04762e-05 0
0 -8.57147e-05 0
0 -4.2953e-05 0
0 -7.82027e-05 0
0 -2.09499e-05 0
0 -3.31713e-05 0
0 -9.30599e-05 0
0 -7.26197e-05 0
0 -1.76801e-05 0
0 -2.06228e-05 0
0 -7.8371e-05 0
0 -1.84411e-05 0
0 -7.30662e-05 0
0 -4.11806e-05 0
0 -2.3265e-05 0
0 -4.23503e-05 0
0 -5.94919e-05 0
0 -4.22718e-05 0
0 -2.12723e-05 0
0 -1.86252e-05 0
0 -1.77849e-05 0
0 -3.82356e-05 0
0 -2.39658e-05 0
0 -1.62481e-05 0
0 -7.86148e-05 0
0 -1.61387e-05 0
0 -2.34763e-05 0
0 -2.95637e-05 0
0 -2.93742e-05 0
0 -1.33947e-05 0
0 -1.83735e-05 0
0 -2.05639e-05 0
0 -1.91062e-05 0
0 -1.84053e-05 0
0 -6.25793e-05 0
0 -4.49914e-05 0
0 -1.98914e-05 0
0 -1.58922e-05 0
0 -2.367e-05 0
0 -3.81266e-05 0
0 -4.36518e-05 0
0 -2.25472e-05 0
0 -0.000115119 0
0 -3.05886e-05 0
0 -1.32828e-05 0
0 -3.38507e-05 0
0 -1.78391e-05 0
0 -2.88237e-05 0
0 -1.34771e-05 0
0 -2.36876e-05 0
0 -2.06453e-05 0
0 -2.58912e-05 0
0 -2.10097e-05 0
0 -1.7602e-05 0
0 -3.13896e-05 0
0 -1.34386e-05 0
0 -2.38863e-05 0
0 -2.04203e-05 0
0 -1.33426e-05 0
0 -2.13076e-05 0
0 -1.86316e-05 0
0 -3.10974e-05 0
0 -2.56228e-05 0
0 -2.33161e-05 0
0 -1.57181e-05 0
0 -1.87061e-05 0
0 -5.38771e-05 0
0 -1.84308e-05 0
0 -3.08341e-05 0
0 -2.91652e-05 0
0 -1.16203e-05 0
0 -1.85667e-05 0
0 -2.00287e-05 0
0 -2.68375e-05 0
0 -2.37799e-05 0
0 -3.16945e-05 0
0 -3.13676e-05 0
0 -3.15313e-05 0
0 -1.90796e-05 0
0 -1.58134e-05 0
0 -1.83326e-05 0
0 -3.16308e-05 0
0 -2.07128e-05 0
0 -2.91276e-05 0
0 -6.03597e-05 0
0 -2.26581e-05 0
0 -2.35174e-05 0
0 -2.33506e-05 0
0 -2.59482e-05 0
0 -1.63393e-05 0
0 -1.78912e-05 0
0 -2.02658e-05 0
0 -5.62379e-05 0
0 -2.04507e-05 0
0 -2.14176e-05 0
0 -2.38895e-05 0
0 -3.05955e-05 0
0 -3.11287e-05 0
0 -2.01544e-05 0
0 -1.92198e-05 0
0 -2.99909e-05 0
0 -6.32085e-05 0
0 -2.04829e-05 0
0 -2.67435e-05 0
0 -2.11611e-05 0
0 -1.83262e-05 0
0 -1.96474e-05 0
0 -2.0699e-05 0
0 -2.83503e-05 0
0 -2.27807e-05 0
0 -2.35234e-05 0
0 -1.93874e-05 0
0 -6.29086e-05 0
0 -2.12117e-05 0
0 -3.22943e-05 0
0 -2.06229e-05 0
0 -2.61501e-05 0
0 -1.90721e-05 0
0 -2.86319e-05 0
0 -2.53212e-05 0
0 -2.07681e-05 0
0 -2.05553e-05 0
0 -1.88077e-05 0
0 -6.92631e-05 0
0 -2.20924e-05 0
0 -2.02457e-05 0
0 -6.16224e-05 0
0 -2.08117e-05 0
0 -2.85397e-05 0
0 -2.08875e-05 0
0 -6.32617e-05 0
0 -1.39008e-05 0
0 -2.0289e-05 0
0 -6.45558e-05 0
0 -2.47785e-05 0
0 -2.35177e-05 0
0 -7.28089e-06 0
0 -2.18143e-05 0
0 -6.93323e-06 0
0 -6.87344e-06 0
0 -8.76768e-06 0
0 -2.48719e-05 0
0 -2.22231e-05 0
0 -1.31068e-05 0
0 -7.69816e-06 0
0 -2.27889e-05 0
0 -5.95166e-06 0
0 -6.55579e-06 0
0 -6.71305e-06 0
0 -2.46468e-05 0
0 -2.27228e-05 0
0 -7.6878e-06 0
0 -6.67903e-06 0
0 -6.10861e-05 0
0 -6.6189e-06 0
0 -6.52665e-06 0
0 -6.87836e-06 0
0 -1.78856e-05 0
0 -1.87072e-05 0
0 -6.73674e-06 0
0 -6.91401e-06 0
0 -1.82903e-05 0
0 -2.2423e-05 0
0 -6.67521e-06 0
0 -7.02401e-06 0
0 -1.78908e-05 0
0 -5.89658e-06 0
0 -1.98938e-05 0
0 -7.3162e-06 0
0 -5.63509e-06 0
0 -1.76631e-05 0
0 -1.42638e-05 0
0 -2.22707e-05 0
0 -1.77204e-05 0
0 -2.11264e-05 0
0 -1.75686e-05 0
0 -1.76047e-05 0
0 -6.69346e-06 0
0 -2.20467e-05 0
0 -1.42479e-05 0
0 -1.76144e-05 0
0 -6.84615e-06 0
0 -6.12404e-06 0
0 -6.50125e-06 0
0 -1.41879e-05 0
0 -1.37476e-05 0
0 -2.11168e-05 0
0 -1.79377e-05 0
0 -1.37282e-05 0
0 -1.41198e-05 0
0 -2.15061e-05 0
0 -6.84475e-06 0
0 -1.74349e-05 0
0 -1.75758e-05 0
0 -6.41828e-06 0
0 -7.20025e-06 0
0 -2.30432e-05 0
0 -6.96894e-06 0
0 -6.44499e-06 0
0 -6.14414e-06 0
0 -2.14766e-05 0
0 -6.00855e-06 0
0 -5.92427e-06 0
0 -5.81567e-06 0
0 -5.02303e-06 0
0 -5.01945e-06 0
0 -4.85271e-06 0
0 -4.87573e-06 0
0 -4.8684e-06 0
0 -5.22951e-06 0
0 -4.84801e-06 0
0 -4.88396e-06 0
0 -4.77612e-06 0
0 -4.81304e-06 0
0 -4.85251e-06 0
0 -4.8555e-06 0
0 -4.82575e-06 0
0 -4.80313e-06 0
0 -4.86923e-06 0
0 -4.85781e-06 0
0 -4.73027e-06 0
0 -1.08748e-05 0
0 -5.22863e-06 0
0 -5.34413e-06 0
0 -5.26459e-06 0
0 -5.05624e-06 0
0 -4.92238e-06 0
0 -5.43253e-06 0
0 -5.43253e-06 0
0 -5.43253e-06 0
0 -5.43253e-06 0
0 -5.43253e-06 0
0 -5.43253e-06 0
0 -5.40321e-06 0
0 -5.40321e-06 0
0 -7.3113e-06 0
0 -6.98147e-06 0
0 -4.8949e-06 0

