# vtk DataFile Version 4.2
vtk output
ASCII
DATASET UNSTRUCTURED_GRID

POINTS 343 double
0.00112195 0.00419516 6.96009e-08
0.00216962 0.00498329 0.00217513
0 0.00419538 0.00112517
0.00193109 0.00195522 0.00194194
0.00517651 0.00241435 0.00503049
0.00517621 0.00383631 0.00639561
0.00762422 0.00478938 0.00499491
0.00622392 0.00485956 0.00368937
0.00684415 0.00330064 0.00691029
0.00499065 0.00499795 0.0049983
0.00419136 0.00112414 0.00999728
0.00529123 0.00208842 0.00790173
0.00420311 -9.50673e-07 0.00831574
0.0020147 0.00200314 0.00803294
0.00429412 0.00253796 0.00999716
0.00695376 0.00645752 0.00694323
0.00641007 0.0061916 0.00518038
0.00226247 0.00218564 0.00514588
0 0.00143586 0.00417514
0.00159479 0.00346645 0.00403705
0.00684206 0.00320632 0.00315847
0.00775648 0.00222932 0.00505962
0 0.00270918 0.00154168
0.004163 0.00143473 -8.91359e-07
0.00501337 0.00219548 0.00219593
0.00396279 0.00353045 0.00160185
0.00134779 -2.82795e-07 0.00405989
0.0041926 -1.22712e-06 0.00168669
0.00262178 0.00695288 -2.26233e-07
0.00193489 0.00805321 0.00194469
0.00408283 0.00625107 0.00164387
0.00799595 0.00800022 0.00799204
0.00796965 0.00483051 0.00801702
0.00838648 0.00609571 0.00594284
0.00998636 0.00884734 0.00418553
0.00756787 0.00764858 0.00495986
0.00854894 0.0099966 0.00416186
0.00796351 0.00798554 0.00201201
0.00353946 0.00303943 0.00695873
0.00444212 0.00366631 0.00832213
0.0038995 0.00160528 0.00596808
0.00500039 0.00767382 0.00767462
0.00198763 0.00800852 0.00798958
0.00282071 0.00999911 0.00712701
0.00390993 0.00840299 0.00595707
0 0.00695361 0.00262895
0.00164514 0.00623975 0.00408779
0 0.0040177 0.00850214
0.00231467 0.00498651 0.00766129
0.00143374 0.00417484 0.00999992
0.00717291 0.0071295 0.00999319
0.00611808 0.00597889 0.00841398
0.00204924 0.00794194 0.00474174
0.00304119 0.00694434 0.00646738
0.00158608 0.00607873 0.00592592
0.00999236 0.0058059 0.00830689
0 0.00718191 0.00711644
0.00158268 0.00577394 -8.19629e-10
0 0.00577432 0.00158701
0.00999062 0.00717922 0.00710661
0.00287092 0.00335115 0.00999872
0.00998608 0.00143431 0.00416723
0.00804577 0.00196052 0.00197462
0.0083952 0.0035196 0.00399334
0.00373184 0.00165248 0.00412747
0.00150615 0.00999977 0.00581504
0.00281796 -5.97098e-07 0.00712718
0.00611538 0.00418017 0.00837247
0.00998609 0.00727125 0.00418772
0.0085483 -1.42213e-06 0.00416208
0.00334187 0.00287248 -4.66215e-07
0.00270638 0.00154112 0.0099988
0.00282558 -7.34332e-07 0.00283158
0.00479914 0.0051988 0.00755224
0.00315951 0.00314836 0.00316682
0 0.00849157 0.00581511
0.00486706 0.00367521 0.00378463
0.00153698 0.00270889 2.81702e-08
0.00579469 0.00832376 0.00999513
0.00597343 0.00999775 0.00850147
0.00420586 0.00999849 0.00831569
0.00401393 0.00850242 0.00999746
0.00998878 0.00848853 0.00580609
0.0031439 0.00683518 0.00315031
0 0.00748929 0.00137438
0.00137094 0.00748904 4.84909e-08
0 0.00287343 0.00335182
0 0.00580816 0.00831736
0 0.00429792 0.00253898
0.00253149 0.00429722 -1.69302e-07
0.00143377 0.00581942 0.00999991
0.00517223 0.00647421 0.00639816
0.00360224 0.00651141 0.00823274
0.00694594 0.00262591 0.00999355
0.00801526 0.00195696 0.00802866
0.00695793 -1.56228e-06 0.00307832
0.00601018 0.0016632 0.0036101
0.00998482 0.00287163 0.00334432
0 0.00140616 0.00256446
0.00636483 0.008226 0.0064174
0.00580416 0.00143403 -1.92718e-06
0.00602426 0.00355054 0.00160056
0.0031494 0.00999904 0.00582454
0.00854612 0.00999672 0.00582654
0.00255633 0.00140553 -2.1102e-07
0.0059633 -1.45602e-06 0.00149163
0.00626904 0.00828588 0.00361439
0.00854542 -1.39618e-06 0.00582663
0.00619871 0.00167168 0.00636177
0.00140376 0.00256419 0.00999994
0.0070995 0.00717943 -3.40485e-06
0.00515547 0.00768839 0.00216705
0.00593001 0.00609153 0.00159934
0 0.00686719 0.00578184
0.00998381 0.00140458 0.00255735
0.00177282 0.00361035 0.00640768
0.00998407 0.00848375 0.00261633
0.00839924 0.00618687 0.00412713
0.00596517 0.00999753 0.00149133
0.0069618 -1.31933e-06 0.00692175
0.00998858 0.00143398 0.00581074
0.00838743 0.00357141 0.00605427
0.00150459 -2.85902e-07 0.00581511
0 0.0013659 0.00748679
0.00136627 -1.76661e-07 0.00752893
0.00998845 0.00686446 0.00577291
0.00580075 0.00848929 -2.2705e-06
0 0.0075208 0.00859127
0.00136446 0.00748667 0.00999983
0.00422283 0.00820444 0.00362729
0.00858157 0.00999679 0.00750434
0.00999153 0.00862718 0.00751631
0.00577 0.00158568 0.00999518
0.00725425 0.00418613 0.00999307
0 0.0057735 0.00666667
0.00136777 0.00999974 0.00752887
0 0.00863025 0.00752641
0.00857271 -1.4591e-06 0.00250201
0.00998383 0.00695065 0.00262162
0.0084436 0.00633959 0.00215784
0.00850394 0.00582156 0.00999116
0.00748453 0.00137286 0.00999266
0.00858084 -1.28701e-06 0.0075045
0.00999123 0.00136449 0.00747679
0 0.00143551 0.00581971
0.00597123 -1.20676e-06 0.00850162
0.00420409 -1.07882e-06 0.00339869
0.00791909 0.00470563 0.00203009
0.00998364 0.0042959 0.00253193
0.00422149 0.00999846 0.00666504
0.00282813 0.00999917 0.00283157
0.00130905 -2.87698e-07 0.00241817
0 0.00727418 0.00419576
0.00998982 0.00577129 0.00665717
0.00695963 0.00999719 0.00307799
0.00750189 0.00863454 0.00999262
0 0.00574334 0.00336387
0 0.0043297 0.00416652
0.0068648 0.00578213 0.00999358
0.00999024 0.00302046 0.00690565
0.00421867 -9.4908e-07 0.00666517
0.00247514 0.00999922 0.00861091
0.00746887 0.00136422 -3.4852e-06
0.00577013 0.00666494 0.00999511
0.009993 0.00751809 0.00858068
0.00860289 0.00755098 0.00999096
0.00689819 0.00302039 -2.99912e-06
0.00335451 0.00574233 -5.38603e-07
0.00750908 0.00862735 -3.95833e-06
0.00749929 0.00999687 0.00138323
0.00576719 0.0068652 -2.22762e-06
0.00696161 0.00636856 0.00302977
0.00749798 -1.54528e-06 0.00138371
0.00288189 0.00499857 0.00999865
0.0043273 0.00583221 0.00999698
0.00432633 0.00416549 0.00999697
0.00750909 0.0099972 0.00860904
0.0024725 -3.78012e-07 0.00861107
0.00998472 0.00574112 0.00335637
0 0.00302218 0.00691532
0.00999267 0.00401584 0.00849158
0.00848304 0.00401566 -4.55673e-06
0.00998233 0.00270735 0.00153515
0 0.00244495 0.00857025
0.00244376 0.00856977 0.00999893
0.00750773 -1.24875e-06 0.00860916
0.00848221 0.00262212 0.00999118
0.0088461 0.00419189 0.0099906
0.00566239 0.00999784 0.00583051
0.00517789 0.00758193 0.00503032
0.00563275 0.00999781 0.00421283
0.0069634 0.00999734 0.00692167
0.00302018 0.00691457 0.00999844
0.00415479 0.00432844 -1.0166e-06
0.00282869 -7.28239e-07 0.00440413
0.00314658 -7.47413e-07 0.00582476
0.0099818 0.00419332 0.00111868
0.00362983 0.00833647 0.00158726
0.00998594 0.00432766 0.00415847
0.00665017 0.00577139 -2.85884e-06
0.00857333 0.00999652 0.00250161
0 0.00848692 0.00262374
0.00134935 0.00999982 0.0040599
0 0.00885053 0.00419359
0.00418324 0.00884898 -1.2002e-06
0.00419529 0.00999845 0.0016865
0.00498814 0.00478985 0.00237716
0.00720208 0.0045197 -3.31187e-06
0.00563029 -1.33168e-06 0.00421312
0.00565997 -1.27273e-06 0.00583069
0.00131057 0.00999983 0.0024181
0.00855106 0.00244307 -4.54515e-06
0.00999068 0.00451976 0.0072097
0.00710389 0.00999719 0.00499587
0.00573918 0.00336249 0.00999524
0.00245125 -6.68259e-07 0.00135621
0.00999288 0.00244343 0.00855963
0.00239114 0.0047908 0.00499959
0.00581823 0.00432841 -2.19117e-06
0.00829845 0.00580565 -4.56383e-06
0.00547287 0.00999795 0.00721721
0.00998852 0.00432814 0.00582431
0.00539177 0.00999786 0.00277362
0.00710232 -1.45959e-06 0.00499611
0.00283126 0.00999916 0.00440406
0 0.00452174 0.00721958
0.00451854 0.00721879 0.00999679
0.00547041 -1.20565e-06 0.00721729
0.00359653 0.00507297 0.00359583
0.00424475 0.00999847 0.0050069
0.00424193 -9.67871e-07 0.00500718
0.00366569 0.00521594 0.00617368
0 0.005744 0.00499998
0 0.00433013 0.00583333
0.00498672 0.00574232 -1.62184e-06
0.00497533 0.00633757 0.00355209
0.00538942 -1.35368e-06 0.00277378
0.00998718 0.00574186 0.00499144
0.00368479 0.00640682 0.00484319
0.00574015 0.00499845 0.00999519
0.00998232 0.00577199 0.00158033
0 0.00666667 0
0.00857236 0.00751796 -4.97182e-06
0.00332285 -8.55478e-07 -5.33903e-07
0 0.01 0.00666667
0.00499838 0.00999816 0.00999619
0 0.00288419 0.00499914
0.00998222 0.00748613 0.00136766
0.00998048 0.00666391 -6.61186e-06
0 0.005 0.01
0.0049854 0.00288279 -1.45948e-06
0 0.005 0
0.00998513 -1.16119e-06 0.0033259
0.00999068 0.00999624 0.00665705
0.00418483 0.00727277 -1.15229e-06
0.00998729 0.00288247 0.00499064
0.00498583 -1.28131e-06 -1.44519e-06
0 0 0.00666667
0.00379236 0.00361577 0.00522544
0.00499556 -1.20976e-06 0.0099961
0.00999012 -1.13045e-06 0.00665721
0 0 0.005
0.00876283 0.00999633 0.00121466
0.00998223 0.00877649 0.00121329
0.00998758 -1.16787e-06 0.00499155
0.00998051 0.00499765 -6.42113e-06
0.00121622 0.00121984 2.7762e-08
0 0.00122008 0.00122008
0 0.00333333 0.01
0 0.00666667 0.01
0.0087612 0.00877658 -5.23625e-06
0.00998559 0.00999604 0.00332555
0.00420683 0.00999848 0.00339859
0.00999535 0.00666418 0.00998854
0 0.00333333 0
0 0.00122008 0.00877992
0.00121743 -1.62673e-07 0.0087798
0.00121781 0.00121988 0.00999997
0.00877398 0.0099968 0.00877095
0.00121886 0.00877978 0.00999987
0 0.00877992 0.00877992
0.0099935 0.00877686 0.00876916
0.00665119 0.00999707 -3.24314e-06
0.009982 0.00121854 0.00121366
0.00121883 0.00999976 0.00877977
0.00877561 0.00877717 0.00999063
0.00999529 0.00499798 0.00998854
0 0 0.00333333
0.00664973 -1.41863e-06 -2.79748e-06
0.00876226 -1.39877e-06 0.00121513
0.00120776 -2.66763e-07 0.00121163
0 0.00877992 0.00122008
0.0012172 0.00877963 3.57657e-08
0.00120913 0.00999979 0.00121149
0.00999328 0.0012187 0.00876915
0.00877523 0.00121862 0.00999064
0.00666201 -1.40272e-06 0.00999374
0.00876068 0.00121849 -4.73513e-06
0.00877332 -1.24063e-06 0.00877105
0.00998049 0.00333136 -6.27579e-06
0.00333234 0.00999898 0.00999813
0.00245371 0.00999933 0.00135602
0.00666387 0.00999757 0.00999382
0.00999528 0.00333164 0.00998859
0 0.01 0.005
0.00261706 0.0084861 -3.00745e-07
0.00998807 0.00999614 0.00499145
0 0.01 0.00333333
0 0.00166667 0
0.00998279 -1.22109e-06 0.00166005
0 0.00166667 0.01
0 0.00833333 0
0.0099808 0.00832991 -6.55903e-06
0.00999273 -1.0972e-06 0.00832278
0.00998323 0.009996 0.0016596
0.00999328 0.00999633 0.0083227
0.00166576 0.00999953 0.00999953
0 0.01 0.00833333
0.00831539 0.00999636 -4.96263e-06
0.00831454 -1.4312e-06 -4.32605e-06
0.00832867 -1.33054e-06 0.00999123
0.00832958 0.00999699 0.0099913
0 0 0.00833333
0.0099955 0.00833047 0.00998855
0.00166115 -4.06889e-07 -7.38419e-08
0 0 0.00166667
0.00332551 0.00999881 -7.25971e-07
0.00999532 0.00166521 0.00998856
0.00998056 0.00166498 -6.19589e-06
0.00166369 -2.89556e-07 0.0099996
0.00166304 0.00999955 -1.4159e-07
0 0.01 0.00166667
0.00999579 0.00999651 0.00998856
0 0 0.01
0.00998108 0.00999586 -6.6991e-06
0.00999535 -1.21777e-06 0.00998855
0 0.01 0.01
0.00998065 -1.14923e-06 -6.18503e-06
0 0.01 0
0 0 0
0.00498812 0.00999795 -1.7983e-06
0.00332963 -9.19872e-07 0.00999802
0 0.00833333 0.01

CELLS 343 686
1 0
1 1
1 2
1 3
1 4
1 5
1 6
1 7
1 8
1 9
1 10
1 11
1 12
1 13
1 14
1 15
1 16
1 17
1 18
1 19
1 20
1 21
1 22
1 23
1 24
1 25
1 26
1 27
1 28
1 29
1 30
1 31
1 32
1 33
1 34
1 35
1 36
1 37
1 38
1 39
1 40
1 41
1 42
1 43
1 44
1 45
1 46
1 47
1 48
1 49
1 50
1 51
1 52
1 53
1 54
1 55
1 56
1 57
1 58
1 59
1 60
1 61
1 62
1 63
1 64
1 65
1 66
1 67
1 68
1 69
1 70
1 71
1 72
1 73
1 74
1 75
1 76
1 77
1 78
1 79
1 80
1 81
1 82
1 83
1 84
1 85
1 86
1 87
1 88
1 89
1 90
1 91
1 92
1 93
1 94
1 95
1 96
1 97
1 98
1 99
1 100
1 101
1 102
1 103
1 104
1 105
1 106
1 107
1 108
1 109
1 110
1 111
1 112
1 113
1 114
1 115
1 116
1 117
1 118
1 119
1 120
1 121
1 122
1 123
1 124
1 125
1 126
1 127
1 128
1 129
1 130
1 131
1 132
1 133
1 134
1 135
1 136
1 137
1 138
1 139
1 140
1 141
1 142
1 143
1 144
1 145
1 146
1 147
1 148
1 149
1 150
1 151
1 152
1 153
1 154
1 155
1 156
1 157
1 158
1 159
1 160
1 161
1 162
1 163
1 164
1 165
1 166
1 167
1 168
1 169
1 170
1 171
1 172
1 173
1 174
1 175
1 176
1 177
1 178
1 179
1 180
1 181
1 182
1 183
1 184
1 185
1 186
1 187
1 188
1 189
1 190
1 191
1 192
1 193
1 194
1 195
1 196
1 197
1 198
1 199
1 200
1 201
1 202
1 203
1 204
1 205
1 206
1 207
1 208
1 209
1 210
1 211
1 212
1 213
1 214
1 215
1 216
1 217
1 218
1 219
1 220
1 221
1 222
1 223
1 224
1 225
1 226
1 227
1 228
1 229
1 230
1 231
1 232
1 233
1 234
1 235
1 236
1 237
1 238
1 239
1 240
1 241
1 242
1 243
1 244
1 245
1 246
1 247
1 248
1 249
1 250
1 251
1 252
1 253
1 254
1 255
1 256
1 257
1 258
1 259
1 260
1 261
1 262
1 263
1 264
1 265
1 266
1 267
1 268
1 269
1 270
1 271
1 272
1 273
1 274
1 275
1 276
1 277
1 278
1 279
1 280
1 281
1 282
1 283
1 284
1 285
1 286
1 287
1 288
1 289
1 290
1 291
1 292
1 293
1 294
1 295
1 296
1 297
1 298
1 299
1 300
1 301
1 302
1 303
1 304
1 305
1 306
1 307
1 308
1 309
1 310
1 311
1 312
1 313
1 314
1 315
1 316
1 317
1 318
1 319
1 320
1 321
1 322
1 323
1 324
1 325
1 326
1 327
1 328
1 329
1 330
1 331
1 332
1 333
1 334
1 335
1 336
1 337
1 338
1 339
1 340
1 341
1 342

CELL_TYPES 343
1
1
1
1
1
1
1
1
1
1
1
1
1
1
1
1
1
1
1
1
1
1
1
1
1
1
1
1
1
1
1
1
1
1
1
1
1
1
1
1
1
1
1
1
1
1
1
1
1
1
1
1
1
1
1
1
1
1
1
1
1
1
1
1
1
1
1
1
1
1
1
1
1
1
1
1
1
1
1
1
1
1
1
1
1
1
1
1
1
1
1
1
1
1
1
1
1
1
1
1
1
1
1
1
1
1
1
1
1
1
1
1
1
1
1
1
1
1
1
1
1
1
1
1
1
1
1
1
1
1
1
1
1
1
1
1
1
1
1
1
1
1
1
1
1
1
1
1
1
1
1
1
1
1
1
1
1
1
1
1
1
1
1
1
1
1
1
1
1
1
1
1
1
1
1
1
1
1
1
1
1
1
1
1
1
1
1
1
1
1
1
1
1
1
1
1
1
1
1
1
1
1
1
1
1
1
1
1
1
1
1
1
1
1
1
1
1
1
1
1
1
1
1
1
1
1
1
1
1
1
1
1
1
1
1
1
1
1
1
1
1
1
1
1
1
1
1
1
1
1
1
1
1
1
1
1
1
1
1
1
1
1
1
1
1
1
1
1
1
1
1
1
1
1
1
1
1
1
1
1
1
1
1
1
1
1
1
1
1
1
1
1
1
1
1
1
1
1
1
1
1
1
1
1
1
1
1
1
1
1
1
1
1
1
1
1
1
1
1
1
1
1
1
1
1
1
1
1
1
1
1
1
1
1
1
1
1
1
1
1
1
1
1

POINT_DATA 343
FIELD FieldData 3

ExternalForceID_(#) 1 343 int
0
1
2
3
4
5
6
7
8
9
10
11
12
13
14
15
16
17
18
19
20
21
22
23
24
25
26
27
28
29
30
31
32
33
34
35
36
37
38
39
40
41
42
43
44
45
46
47
48
49
50
51
52
53
54
55
56
57
58
59
60
61
62
63
64
65
66
67
68
69
70
71
72
73
74
75
76
77
78
79
80
81
82
83
84
85
86
87
88
89
90
91
92
93
94
95
96
97
98
99
100
101
102
103
104
105
106
107
108
109
110
111
112
113
114
115
116
117
118
119
120
121
122
123
124
125
126
127
128
129
130
131
132
133
134
135
136
137
138
139
140
141
142
143
144
145
146
147
148
149
150
151
152
153
154
155
156
157
158
159
160
161
162
163
164
165
166
167
168
169
170
171
172
173
174
175
176
177
178
179
180
181
182
183
184
185
186
187
188
189
190
191
192
193
194
195
196
197
198
199
200
201
202
203
204
205
206
207
208
209
210
211
212
213
214
215
216
217
218
219
220
221
222
223
224
225
226
227
228
229
230
231
232
233
234
235
236
237
238
239
240
241
242
243
244
245
246
247
248
249
250
251
252
253
254
255
256
257
258
259
260
261
262
263
264
265
266
267
268
269
270
271
272
273
274
275
276
277
278
279
280
281
282
283
284
285
286
287
288
289
290
291
292
293
294
295
296
297
298
299
300
301
302
303
304
305
306
307
308
309
310
311
312
313
314
315
316
317
318
319
320
321
322
323
324
325
326
327
328
329
330
331
332
333
334
335
336
337
338
339
340
341
342

ExternalForceType_(0/1/2/3/4) 1 343 int
0
0
0
0
0
0
0
0
0
0
0
0
0
0
0
0
0
0
0
0
0
0
0
0
0
0
0
0
0
0
0
0
0
0
0
0
0
0
0
0
0
0
0
0
0
0
0
0
0
0
0
0
0
0
0
0
0
0
0
0
0
0
0
0
0
0
0
0
0
0
0
0
0
0
0
0
0
0
0
0
0
0
0
0
0
0
0
0
0
0
0
0
0
0
0
0
0
0
0
0
0
0
0
0
0
0
0
0
0
0
0
0
0
0
0
0
0
0
0
0
0
0
0
0
0
0
0
0
0
0
0
0
0
0
0
0
0
0
0
0
0
0
0
0
0
0
0
0
0
0
0
0
0
0
0
0
0
0
0
0
0
0
0
0
0
0
0
0
0
0
0
0
0
0
0
0
0
0
0
0
0
0
0
0
0
0
0
0
0
0
0
0
0
0
0
0
0
0
0
0
0
0
0
0
0
0
0
0
0
0
0
0
0
0
0
0
0
0
0
0
0
0
0
0
0
0
0
0
0
0
0
0
0
0
0
0
0
0
0
0
0
0
0
0
0
0
0
0
0
0
0
0
0
0
0
0
0
0
0
0
0
0
0
0
0
0
0
0
0
0
0
0
0
0
0
0
0
0
0
0
0
0
0
0
0
0
0
0
0
0
0
0
0
0
0
0
0
0
0
0
0
0
0
0
0
0
0
0
0
0
0
0
0
0
0
0
0
0
0
0
0
0
0
0
0
0
0
0
0
0
0
0
0
0
0
0
0
0
0
0
0
0
0

ExternalForce_(N) 3 343 double
0 -3.09568e-05 0
0 -0.000138619 0
0 -2.16714e-05 0
0 -0.000168226 0
0 -8.26002e-05 0
0 -8.9203e-05 0
0 -9.74165e-05 0
0 -7.37906e-05 0
0 -6.68156e-05 0
0 -5.47617e-05 0
0 -3.04981e-05 0
0 -0.000105531 0
0 -4.77758e-05 0
0 -0.000161821 0
0 -2.96713e-05 0
0 -7.9067e-05 0
0 -6.57564e-05 0
0 -0.000106704 0
0 -4.11017e-05 0
0 -8.006e-05 0
0 -6.02474e-05 0
0 -0.000115662 0
0 -2.18875e-05 0
0 -4.17098e-05 0
0 -0.000107827 0
0 -7.27379e-05 0
0 -4.13856e-05 0
0 -3.85027e-05 0
0 -3.029e-05 0
0 -0.000128774 0
0 -7.57947e-05 0
0 -0.000162261 0
0 -0.000116775 0
0 -7.15802e-05 0
0 -3.74431e-05 0
0 -0.000108892 0
0 -3.74072e-05 0
0 -0.000136493 0
0 -6.25303e-05 0
0 -7.85756e-05 0
0 -7.52544e-05 0
0 -0.000116589 0
0 -0.000160874 0
0 -2.73339e-05 0
0 -8.7662e-05 0
0 -2.53184e-05 0
0 -7.42972e-05 0
0 -4.15199e-05 0
0 -0.000128792 0
0 -3.72945e-05 0
0 -2.72189e-05 0
0 -7.03157e-05 0
0 -0.000119003 0
0 -5.02041e-05 0
0 -8.04153e-05 0
0 -4.4939e-05 0
0 -2.74192e-05 0
0 -3.19929e-05 0
0 -4.04607e-05 0
0 -2.07889e-05 0
0 -3.28809e-05 0
0 -3.54797e-05 0
0 -0.000153858 0
0 -7.19739e-05 0
0 -8.09026e-05 0
0 -4.90862e-05 0
0 -2.77255e-05 0
0 -7.06591e-05 0
0 -3.20606e-05 0
0 -4.10794e-05 0
0 -1.98932e-05 0
0 -2.37551e-05 0
0 -3.0591e-05 0
0 -5.86107e-05 0
0 -5.75946e-05 0
0 -4.01595e-05 0
0 -5.35099e-05 0
0 -2.24477e-05 0
0 -4.41213e-05 0
0 -4.29866e-05 0
0 -4.42325e-05 0
0 -4.30889e-05 0
0 -4.19155e-05 0
0 -5.21923e-05 0
0 -1.5029e-05 0
0 -2.34331e-05 0
0 -1.9903e-05 0
0 -4.30461e-05 0
0 -3.11931e-05 0
0 -3.08326e-05 0
0 -4.52797e-05 0
0 -5.7648e-05 0
0 -8.02544e-05 0
0 -2.43623e-05 0
0 -0.000150893 0
0 -3.43039e-05 0
0 -7.21258e-05 0
0 -1.97489e-05 0
0 -2.00202e-05 0
0 -7.83017e-05 0
0 -4.32908e-05 0
0 -7.00326e-05 0
0 -1.17841e-05 0
0 -4.93779e-05 0
0 -1.58193e-05 0
0 -4.04762e-05 0
0 -8.57147e-05 0
0 -4.2953e-05 0
0 -7.82027e-05 0
0 -2.09499e-05 0
0 -3.31713e-05 0
0 -9.30599e-05 0
0 -7.26197e-05 0
0 -1.76801e-05 0
0 -2.06228e-05 0
0 -7.8371e-05 0
0 -1.84411e-05 0
0 -7.30662e-05 0
0 -4.11806e-05 0
0 -2.3265e-05 0
0 -4.23503e-05 0
0 -5.94919e-05 0
0 -4.22718e-05 0
0 -2.12723e-05 0
0 -1.86252e-05 0
0 -1.77849e-05 0
0 -3.82356e-05 0
0 -2.39658e-05 0
0 -1.62481e-05 0
0 -7.86148e-05 0
0 -1.61387e-05 0
0 -2.34763e-05 0
0 -2.95637e-05 0
0 -2.93742e-05 0
0 -1.33947e-05 0
0 -1.83735e-05 0
0 -2.05639e-05 0
0 -1.91062e-05 0
0 -1.84053e-05 0
0 -6.25793e-05 0
0 -4.49914e-05 0
0 -1.98914e-05 0
0 -1.58922e-05 0
0 -2.367e-05 0
0 -3.81266e-05 0
0 -4.36518e-05 0
0 -2.25472e-05 0
0 -0.000115119 0
0 -3.05886e-05 0
0 -1.32828e-05 0
0 -3.38507e-05 0
0 -1.78391e-05 0
0 -2.88237e-05 0
0 -1.34771e-05 0
0 -2.36876e-05 0
0 -2.06453e-05 0
0 -2.58912e-05 0
0 -2.10097e-05 0
0 -1.7602e-05 0
0 -3.13896e-05 0
0 -1.34386e-05 0
0 -2.38863e-05 0
0 -2.04203e-05 0
0 -1.33426e-05 0
0 -2.13076e-05 0
0 -1.86316e-05 0
0 -3.10974e-05 0
0 -2.56228e-05 0
0 -2.33161e-05 0
0 -1.57181e-05 0
0 -1.87061e-05 0
0 -5.38771e-05 0
0 -1.84308e-05 0
0 -3.08341e-05 0
0 -2.91652e-05 0
0 -1.16203e-05 0
0 -1.85667e-05 0
0 -2.00287e-05 0
0 -2.68375e-05 0
0 -2.37799e-05 0
0 -3.16945e-05 0
0 -3.13676e-05 0
0 -3.15313e-05 0
0 -1.90796e-05 0
0 -1.58134e-05 0
0 -1.83326e-05 0
0 -3.16308e-05 0
0 -2.07128e-05 0
0 -2.91276e-05 0
0 -6.03597e-05 0
0 -2.26581e-05 0
0 -2.35174e-05 0
0 -2.33506e-05 0
0 -2.59482e-05 0
0 -1.63393e-05 0
0 -1.78912e-05 0
0 -2.02658e-05 0
0 -5.62379e-05 0
0 -2.04507e-05 0
0 -2.14176e-05 0
0 -2.38895e-05 0
0 -3.05955e-05 0
0 -3.11287e-05 0
0 -2.01544e-05 0
0 -1.92198e-05 0
0 -2.99909e-05 0
0 -6.32085e-05 0
0 -2.04829e-05 0
0 -2.67435e-05 0
0 -2.11611e-05 0
0 -1.83262e-05 0
0 -1.96474e-05 0
0 -2.0699e-05 0
0 -2.83503e-05 0
0 -2.27807e-05 0
0 -2.35234e-05 0
0 -1.93874e-05 0
0 -6.29086e-05 0
0 -2.12117e-05 0
0 -3.22943e-05 0
0 -2.06229e-05 0
0 -2.61501e-05 0
0 -1.90721e-05 0
0 -2.86319e-05 0
0 -2.53212e-05 0
0 -2.07681e-05 0
0 -2.05553e-05 0
0 -1.88077e-05 0
0 -6.92631e-05 0
0 -2.20924e-05 0
0 -2.02457e-05 0
0 -6.16224e-05 0
0 -2.08117e-05 0
0 -2.85397e-05 0
0 -2.08875e-05 0
0 -6.32617e-05 0
0 -1.39008e-05 0
0 -2.0289e-05 0
0 -6.45558e-05 0
0 -2.47785e-05 0
0 -2.35177e-05 0
0 -7.28089e-06 0
0 -2.18143e-05 0
0 -6.93323e-06 0
0 -6.87344e-06 0
0 -8.76768e-06 0
0 -2.48719e-05 0
0 -2.22231e-05 0
0 -1.31068e-05 0
0 -7.69816e-06 0
0 -2.27889e-05 0
0 -5.95166e-06 0
0 -6.55579e-06 0
0 -6.71305e-06 0
0 -2.46468e-05 0
0 -2.27228e-05 0
0 -7.6878e-06 0
0 -6.67903e-06 0
0 -6.10861e-05 0
0 -6.6189e-06 0
0 -6.52665e-06 0
0 -6.87836e-06 0
0 -1.78856e-05 0
0 -1.87072e-05 0
0 -6.73674e-06 0
0 -6.91401e-06 0
0 -1.82903e-05 0
0 -2.2423e-05 0
0 -6.67521e-06 0
0 -7.02401e-06 0
0 -1.78908e-05 0
0 -5.89658e-06 0
0 -1.98938e-05 0
0 -7.3162e-06 0
0 -5.63509e-06 0
0 -1.76631e-05 0
0 -1.42638e-05 0
0 -2.22707e-05 0
0 -1.77204e-05 0
0 -2.11264e-05 0
0 -1.75686e-05 0
0 -1.76047e-05 0
0 -6.69346e-06 0
0 -2.20467e-05 0
0 -1.42479e-05 0
0 -1.76144e-05 0
0 -6.84615e-06 0
0 -6.12404e-06 0
0 -6.50125e-06 0
0 -1.41879e-05 0
0 -1.37476e-05 0
0 -2.11168e-05 0
0 -1.79377e-05 0
0 -1.37282e-05 0
0 -1.41198e-05 0
0 -2.15061e-05 0
0 -6.84475e-06 0
0 -1.74349e-05 0
0 -1.75758e-05 0
0 -6.41828e-06 0
0 -7.20025e-06 0
0 -2.30432e-05 0
0 -6.96894e-06 0
0 -6.44499e-06 0
0 -6.14414e-06 0
0 -2.14766e-05 0
0 -6.00855e-06 0
0 -5.92427e-06 0
0 -5.81567e-06 0
0 -5.02303e-06 0
0 -5.01945e-06 0
0 -4.85271e-06 0
0 -4.87573e-06 0
0 -4.8684e-06 0
0 -5.22951e-06 0
0 -4.84801e-06 0
0 -4.88396e-06 0
0 -4.77612e-06 0
0 -4.81304e-06 0
0 -4.85251e-06 0
0 -4.8555e-06 0
0 -4.82575e-06 0
0 -4.80313e-06 0
0 -4.86923e-06 0
0 -4.85781e-06 0
0 -4.73027e-06 0
0 -1.08748e-05 0
0 -5.22863e-06 0
0 -5.34413e-06 0
0 -5.26459e-06 0
0 -5.05624e-06 0
0 -4.92238e-06 0
0 -5.43253e-06 0
0 -5.43253e-06 0
0 -5.43253e-06 0
0 -5.43253e-06 0
0 -5.43253e-06 0
0 -5.43253e-06 0
0 -5.40321e-06 0
0 -5.40321e-06 0
0 -7.3113e-06 0
0 -6.98147e-06 0
0 -4.8949e-06 0

