# vtk DataFile Version 4.2
vtk output
ASCII
DATASET UNSTRUCTURED_GRID

POINTS 343 double
0.00112198 0.00419497 7.69298e-08
0.00217016 0.0049827 0.0021752
0 0.00419538 0.00112517
0.00192981 0.00195462 0.00194204
0.00517038 0.00240845 0.00503089
0.00517306 0.00383143 0.00639604
0.00762171 0.00477846 0.00499565
0.00622284 0.00485241 0.00368973
0.00683801 0.00329121 0.00691116
0.00499035 0.00499375 0.00499857
0.00418408 0.0011194 0.00999775
0.00528389 0.00208201 0.00790225
0.00419376 -6.09162e-06 0.00831595
0.00201313 0.00200263 0.00803307
0.00428923 0.002534 0.00999771
0.00695598 0.00644921 0.00694401
0.00641206 0.00618449 0.0051808
0.00226084 0.00218485 0.00514591
0 0.00143586 0.00417514
0.0015944 0.0034662 0.00403699
0.00683613 0.00319657 0.00315897
0.00774663 0.00221646 0.0050605
0 0.00270918 0.00154168
0.00415703 0.00142979 -7.90999e-07
0.0050072 0.00218944 0.00219649
0.00396097 0.00352753 0.00160215
0.00134575 -5.63543e-07 0.00405994
0.00418374 -6.54702e-06 0.0016872
0.00262376 0.00695191 -2.0261e-07
0.00193693 0.00805282 0.00194477
0.00408492 0.00624873 0.00164412
0.00800185 0.00798918 0.00799321
0.00796644 0.00481882 0.00801828
0.00838698 0.00608309 0.00594378
0.00999353 0.00883023 0.0041864
0.00757361 0.00763854 0.00496041
0.00856076 0.00998366 0.00416234
0.00797038 0.00797428 0.00201236
0.00353693 0.00303718 0.00695887
0.00443918 0.00366289 0.0083226
0.00389382 0.00160152 0.00596833
0.00500482 0.00766956 0.00767502
0.00198938 0.00800805 0.0079895
0.00282601 0.00999768 0.00712684
0.00391488 0.0084003 0.00595709
0 0.00695361 0.00262895
0.00164594 0.00623938 0.00408781
0 0.0040177 0.00850214
0.00231514 0.00498589 0.00766128
0.00143372 0.00417456 0.00999989
0.00717609 0.00712063 0.00999428
0.00611903 0.00597255 0.00841475
0.00205105 0.00794151 0.00474171
0.00304311 0.00694322 0.00646732
0.00158671 0.00607844 0.00592592
0.00998984 0.00578841 0.00830863
0 0.00718191 0.00711644
0.00158347 0.00577355 -1.98491e-08
0 0.00577432 0.00158701
0.00999241 0.00716209 0.00710817
0.0028693 0.00334973 0.00999903
0.00997107 0.00141408 0.00416847
0.00803509 0.00194646 0.0019753
0.00838848 0.00350571 0.00399415
0.00372654 0.00164893 0.00412773
0.00150856 0.00999969 0.00581496
0.00281157 -2.98982e-06 0.00712732
0.00611193 0.00417334 0.00837324
0.00998871 0.00725413 0.00418871
0.00853086 -1.80841e-05 0.00416314
0.00333985 0.00287025 -4.61877e-07
0.00270267 0.00153934 0.00999911
0.00281935 -3.37509e-06 0.0028317
0.00479865 0.00519511 0.00755267
0.00315782 0.00314674 0.00316696
0 0.00849157 0.00581511
0.0048642 0.00367073 0.00378497
0.00153643 0.00270872 -1.15398e-08
0.00580022 0.00831775 0.00999583
0.0059831 0.0099912 0.00850226
0.00421284 0.00999505 0.00831598
0.00401819 0.00849928 0.0099977
0.00999463 0.00847153 0.0058073
0.00314591 0.00683389 0.00315046
0 0.00748929 0.00137438
0.00137227 0.00748897 1.09429e-08
0 0.00287343 0.00335182
0 0.00580816 0.00831736
0 0.00429792 0.00253898
0.0025317 0.0042962 -1.66189e-07
0.00143425 0.00581922 0.00999989
0.00517464 0.00646985 0.00639849
0.00360371 0.00650984 0.00823291
0.00693716 0.00261574 0.00999476
0.00800365 0.00194332 0.00802993
0.00694329 -1.36085e-05 0.00307907
0.00600127 0.00165464 0.00361069
0.00997426 0.00285236 0.0033454
0 0.00140616 0.00256446
0.00637123 0.0082188 0.00641785
0.00579497 0.00142545 -1.60239e-06
0.00601992 0.003543 0.00160102
0.00315515 0.00999708 0.00582462
0.00855764 0.00998386 0.00582733
0.00255314 0.00140352 -1.97465e-07
0.00595035 -1.09032e-05 0.00149235
0.00627602 0.00827877 0.0036147
0.0085278 -1.79184e-05 0.00582787
0.00618931 0.00166286 0.0063624
0.00140297 0.00256408 0.00999994
0.00710443 0.00717032 -3.18857e-06
0.00516089 0.00768363 0.00216724
0.00593223 0.00608551 0.00159966
0 0.00686719 0.00578184
0.00996884 0.00138417 0.00255839
0.00177242 0.00360999 0.00640772
0.0099904 0.00846657 0.00261703
0.00840033 0.00617407 0.00412784
0.00597603 0.00999061 0.00149139
0.00694654 -1.32637e-05 0.00692262
0.00997331 0.00141389 0.00581229
0.00838042 0.00355763 0.00605539
0.00150246 -6.80226e-07 0.00581512
0 0.0013659 0.00748679
0.00136441 -5.37131e-07 0.00752889
0.00998961 0.00684728 0.00577413
0.00580836 0.00848298 -2.19012e-06
0 0.0075208 0.00859127
0.00136536 0.00748652 0.00999979
0.00422807 0.00820123 0.00362736
0.00859271 0.00998377 0.00750552
0.00999745 0.00861031 0.00751782
0.00576032 0.00157773 0.00999607
0.00724931 0.00417627 0.00999433
0 0.0057735 0.00666667
0.00136982 0.00999962 0.00752888
0 0.00863025 0.00752641
0.00855535 -1.84528e-05 0.00250301
0.00998568 0.00693337 0.00262239
0.00844539 0.00632659 0.0021583
0.00850278 0.00580868 0.00999275
0.00747174 0.00136025 0.00999399
0.00856275 -1.8038e-05 0.00750576
0.00997532 0.00134438 0.00747858
0 0.00143551 0.00581971
0.00595761 -1.03801e-05 0.00850232
0.00419464 -6.51972e-06 0.00339908
0.00791654 0.00469355 0.00203056
0.00997747 0.00427739 0.00253271
0.00422931 0.00999488 0.00666511
0.00283384 0.00999776 0.00283157
0.00130718 -6.2271e-07 0.00241829
0 0.00727418 0.00419576
0.00998747 0.00575367 0.00665863
0.00697104 0.00998807 0.00307821
0.00750869 0.00862448 0.00999382
0 0.00574334 0.00336387
0 0.0043297 0.00416652
0.00686448 0.00577391 0.00999477
0.00997951 0.00300147 0.00690728
0.00420908 -6.2691e-06 0.00666547
0.00247969 0.009998 0.00861095
0.00745734 0.00135116 -2.9933e-06
0.00577205 0.00665931 0.00999585
0.00999547 0.00750108 0.00858235
0.00860666 0.0075382 0.00999253
0.00689172 0.00301013 -2.52156e-06
0.00335592 0.00574086 -4.26488e-07
0.00751764 0.00861706 -3.75569e-06
0.00751105 0.00998626 0.00138341
0.00577121 0.00685929 -2.10186e-06
0.00696427 0.00635996 0.00303019
0.00748249 -1.54748e-05 0.00138452
0.0028818 0.00499752 0.0099989
0.00432738 0.00582949 0.00999744
0.00432399 0.00416246 0.00999748
0.00751977 0.00998682 0.00861021
0.00246714 -2.45735e-06 0.00861118
0.00998284 0.00572324 0.00335726
0 0.00302218 0.00691532
0.00998461 0.00399754 0.00849342
0.00847788 0.00400133 -4.09572e-06
0.00997144 0.00268781 0.00153588
0 0.00244495 0.00857025
0.00244633 0.0085686 0.00999898
0.00749127 -1.4892e-05 0.00861023
0.00847146 0.00260764 0.00999279
0.00883961 0.00417723 0.00999231
0.00567201 0.00999169 0.00583076
0.00518259 0.00757726 0.00503053
0.00564265 0.00999164 0.00421299
0.0069742 0.00998837 0.00692227
0.0030216 0.00691361 0.00999861
0.00415418 0.00432549 -7.91338e-07
0.00282269 -3.43353e-06 0.00440439
0.00313954 -3.81962e-06 0.00582507
0.00997539 0.00417459 0.00111932
0.00363451 0.00833395 0.00158743
0.00997972 0.0043093 0.00415967
0.00665135 0.0057632 -2.53923e-06
0.00858539 0.00998336 0.00250194
0 0.00848692 0.00262374
0.00135128 0.0099997 0.00405983
0 0.00885053 0.00419359
0.00418962 0.00884539 -1.10694e-06
0.00420366 0.00999475 0.00168656
0.00498763 0.00478565 0.00237743
0.00719953 0.00450943 -2.88745e-06
0.00561823 -9.97678e-06 0.00421375
0.00564767 -9.88687e-06 0.00583121
0.00131256 0.00999971 0.00241806
0.00854119 0.00242768 -4.02376e-06
0.00998443 0.00450165 0.00721135
0.0071152 0.00998786 0.00499626
0.00573384 0.00335607 0.0099961
0.00244598 -2.79496e-06 0.00135643
0.00997995 0.00242401 0.00856159
0.00239136 0.00479002 0.00499966
0.00581605 0.00432176 -1.80765e-06
0.00829887 0.00579278 -4.20235e-06
0.00548214 0.00999228 0.00721765
0.00998196 0.00430987 0.00582574
0.0054017 0.00999209 0.00277362
0.00708721 -1.38035e-05 0.00499693
0.00283679 0.00999776 0.00440404
0 0.00452174 0.00721958
0.0045212 0.00721558 0.00999723
0.00545827 -9.23044e-06 0.00721771
0.00359687 0.00507105 0.00359596
0.004253 0.00999485 0.00500697
0.00423226 -6.44782e-06 0.00500762
0.00366598 0.00521403 0.00617378
0 0.005744 0.00499998
0 0.00433013 0.00583333
0.00498823 0.0057383 -1.34393e-06
0.00497781 0.00633358 0.00355237
0.00537777 -9.47742e-06 0.00277441
0.00998508 0.00572407 0.00499266
0.00368664 0.00640496 0.00484324
0.00573853 0.00499293 0.009996
0.00998069 0.00575401 0.00158091
0 0.00666667 0
0.00857749 0.00750475 -4.73255e-06
0.00331591 -5.0349e-06 -7.03271e-09
0 0.01 0.00666667
0.00500597 0.00999318 0.00999684
0 0.00288419 0.00499914
0.00998575 0.00746892 0.00136816
0.00998159 0.00664627 -6.16914e-06
0 0.005 0.01
0.00498082 0.00287729 -1.23579e-06
0 0.005 0
0.0099656 -2.26578e-05 0.00332713
0.0100005 0.00997936 0.00665836
0.0041887 0.00726987 -1.02392e-06
0.00997646 0.0028633 0.00499201
0.00497521 -8.95507e-06 -8.0214e-07
0 0 0.00666667
0.00379051 0.00361339 0.0052256
0.00498399 -8.49312e-06 0.00999651
0.00997006 -2.24129e-05 0.00665889
0 0 0.005
0.00877486 0.00998258 0.00121487
0.00998955 0.00875923 0.00121369
0.00996779 -2.25094e-05 0.00499303
0.00997655 0.00497923 -5.91309e-06
0.00121526 0.0012194 -2.77128e-08
0 0.00122008 0.00122008
0 0.00333333 0.01
0 0.00666667 0.01
0.00876976 0.00876283 -5.0988e-06
0.00999606 0.00997899 0.00332623
0.0042152 0.00999482 0.00339858
0.00999474 0.00664705 0.00999075
0 0.00333333 0
0 0.00122008 0.00877992
0.00121569 -6.74423e-07 0.00877964
0.00121678 0.0012196 0.01
0.00878469 0.00998319 0.00877252
0.00122002 0.00877955 0.00999981
0 0.00877992 0.00877992
0.00999966 0.00875996 0.00877091
0.00666267 0.00998847 -3.29046e-06
0.00996651 0.00119781 0.0012145
0.00122065 0.00999951 0.00877992
0.00878273 0.00876371 0.00999231
0.00998964 0.00498016 0.00999079
0 0 0.00333333
0.00663563 -1.31573e-05 -1.9663e-06
0.00874469 -1.9204e-05 0.00121605
0.00120601 -7.74097e-07 0.00121192
0 0.00877992 0.00122008
0.00121877 0.00877942 5.52082e-08
0.00121111 0.00999958 0.00121136
0.00997655 0.00119841 0.00877107
0.00875981 0.00120202 0.00999231
0.00664683 -1.27345e-05 0.00999451
0.00874682 0.0012014 -4.11005e-06
0.00875461 -1.86714e-05 0.00877247
0.00997152 0.00331212 -5.68669e-06
0.00333779 0.0099964 0.00999858
0.00245876 0.00999823 0.00135602
0.00667368 0.00998923 0.00999498
0.00998457 0.00331295 0.0099908
0 0.01 0.005
0.00262076 0.00848492 -2.49353e-07
0.00999825 0.0099792 0.0049924
0 0.01 0.00333333
0 0.00166667 0
0.00996343 -2.28769e-05 0.0016611
0 0.00166667 0.01
0 0.00833333 0
0.0099868 0.0083126 -6.35825e-06
0.00997229 -2.242e-05 0.00832456
0.00999391 0.0099788 0.00166003
0.0100028 0.00997941 0.00832442
0.00166863 0.00999875 0.00999962
0 0.01 0.00833333
0.00832754 0.00998371 -4.84992e-06
0.00829773 -1.81365e-05 -3.50917e-06
0.00831042 -1.75982e-05 0.00999258
0.00834 0.0099844 0.00999289
0 0 0.00833333
0.00999994 0.00831351 0.00999069
0.00165788 -1.81289e-06 5.48941e-08
0 0 0.00166667
0.00333251 0.00999643 -7.08057e-07
0.00997952 0.00164515 0.00999075
0.00996643 0.00164447 -5.52508e-06
0.0016605 -1.43976e-06 0.00999973
0.00166641 0.00999897 -1.2582e-07
0 0.01 0.00166667
0.0100051 0.00997953 0.00999073
0 0 0.01
0.0099919 0.00997858 -6.64001e-06
0.00997449 -2.25412e-05 0.00999051
0 0.01 0.01
0.00996138 -2.30068e-05 -5.28958e-06
0 0.01 0
0 0 0
0.00499762 0.00999273 -1.82464e-06
0.00332209 -4.58951e-06 0.00999816
0 0.00833333 0.01

CELLS 343 686
1 0
1 1
1 2
1 3
1 4
1 5
1 6
1 7
1 8
1 9
1 10
1 11
1 12
1 13
1 14
1 15
1 16
1 17
1 18
1 19
1 20
1 21
1 22
1 23
1 24
1 25
1 26
1 27
1 28
1 29
1 30
1 31
1 32
1 33
1 34
1 35
1 36
1 37
1 38
1 39
1 40
1 41
1 42
1 43
1 44
1 45
1 46
1 47
1 48
1 49
1 50
1 51
1 52
1 53
1 54
1 55
1 56
1 57
1 58
1 59
1 60
1 61
1 62
1 63
1 64
1 65
1 66
1 67
1 68
1 69
1 70
1 71
1 72
1 73
1 74
1 75
1 76
1 77
1 78
1 79
1 80
1 81
1 82
1 83
1 84
1 85
1 86
1 87
1 88
1 89
1 90
1 91
1 92
1 93
1 94
1 95
1 96
1 97
1 98
1 99
1 100
1 101
1 102
1 103
1 104
1 105
1 106
1 107
1 108
1 109
1 110
1 111
1 112
1 113
1 114
1 115
1 116
1 117
1 118
1 119
1 120
1 121
1 122
1 123
1 124
1 125
1 126
1 127
1 128
1 129
1 130
1 131
1 132
1 133
1 134
1 135
1 136
1 137
1 138
1 139
1 140
1 141
1 142
1 143
1 144
1 145
1 146
1 147
1 148
1 149
1 150
1 151
1 152
1 153
1 154
1 155
1 156
1 157
1 158
1 159
1 160
1 161
1 162
1 163
1 164
1 165
1 166
1 167
1 168
1 169
1 170
1 171
1 172
1 173
1 174
1 175
1 176
1 177
1 178
1 179
1 180
1 181
1 182
1 183
1 184
1 185
1 186
1 187
1 188
1 189
1 190
1 191
1 192
1 193
1 194
1 195
1 196
1 197
1 198
1 199
1 200
1 201
1 202
1 203
1 204
1 205
1 206
1 207
1 208
1 209
1 210
1 211
1 212
1 213
1 214
1 215
1 216
1 217
1 218
1 219
1 220
1 221
1 222
1 223
1 224
1 225
1 226
1 227
1 228
1 229
1 230
1 231
1 232
1 233
1 234
1 235
1 236
1 237
1 238
1 239
1 240
1 241
1 242
1 243
1 244
1 245
1 246
1 247
1 248
1 249
1 250
1 251
1 252
1 253
1 254
1 255
1 256
1 257
1 258
1 259
1 260
1 261
1 262
1 263
1 264
1 265
1 266
1 267
1 268
1 269
1 270
1 271
1 272
1 273
1 274
1 275
1 276
1 277
1 278
1 279
1 280
1 281
1 282
1 283
1 284
1 285
1 286
1 287
1 288
1 289
1 290
1 291
1 292
1 293
1 294
1 295
1 296
1 297
1 298
1 299
1 300
1 301
1 302
1 303
1 304
1 305
1 306
1 307
1 308
1 309
1 310
1 311
1 312
1 313
1 314
1 315
1 316
1 317
1 318
1 319
1 320
1 321
1 322
1 323
1 324
1 325
1 326
1 327
1 328
1 329
1 330
1 331
1 332
1 333
1 334
1 335
1 336
1 337
1 338
1 339
1 340
1 341
1 342

CELL_TYPES 343
1
1
1
1
1
1
1
1
1
1
1
1
1
1
1
1
1
1
1
1
1
1
1
1
1
1
1
1
1
1
1
1
1
1
1
1
1
1
1
1
1
1
1
1
1
1
1
1
1
1
1
1
1
1
1
1
1
1
1
1
1
1
1
1
1
1
1
1
1
1
1
1
1
1
1
1
1
1
1
1
1
1
1
1
1
1
1
1
1
1
1
1
1
1
1
1
1
1
1
1
1
1
1
1
1
1
1
1
1
1
1
1
1
1
1
1
1
1
1
1
1
1
1
1
1
1
1
1
1
1
1
1
1
1
1
1
1
1
1
1
1
1
1
1
1
1
1
1
1
1
1
1
1
1
1
1
1
1
1
1
1
1
1
1
1
1
1
1
1
1
1
1
1
1
1
1
1
1
1
1
1
1
1
1
1
1
1
1
1
1
1
1
1
1
1
1
1
1
1
1
1
1
1
1
1
1
1
1
1
1
1
1
1
1
1
1
1
1
1
1
1
1
1
1
1
1
1
1
1
1
1
1
1
1
1
1
1
1
1
1
1
1
1
1
1
1
1
1
1
1
1
1
1
1
1
1
1
1
1
1
1
1
1
1
1
1
1
1
1
1
1
1
1
1
1
1
1
1
1
1
1
1
1
1
1
1
1
1
1
1
1
1
1
1
1
1
1
1
1
1
1
1
1
1
1
1
1
1
1
1
1
1
1
1
1
1
1
1
1
1
1
1
1
1
1
1
1
1
1
1
1
1
1
1
1
1
1
1
1
1
1
1
1

POINT_DATA 343
FIELD FieldData 3

ExternalForceID_(#) 1 343 int
0
1
2
3
4
5
6
7
8
9
10
11
12
13
14
15
16
17
18
19
20
21
22
23
24
25
26
27
28
29
30
31
32
33
34
35
36
37
38
39
40
41
42
43
44
45
46
47
48
49
50
51
52
53
54
55
56
57
58
59
60
61
62
63
64
65
66
67
68
69
70
71
72
73
74
75
76
77
78
79
80
81
82
83
84
85
86
87
88
89
90
91
92
93
94
95
96
97
98
99
100
101
102
103
104
105
106
107
108
109
110
111
112
113
114
115
116
117
118
119
120
121
122
123
124
125
126
127
128
129
130
131
132
133
134
135
136
137
138
139
140
141
142
143
144
145
146
147
148
149
150
151
152
153
154
155
156
157
158
159
160
161
162
163
164
165
166
167
168
169
170
171
172
173
174
175
176
177
178
179
180
181
182
183
184
185
186
187
188
189
190
191
192
193
194
195
196
197
198
199
200
201
202
203
204
205
206
207
208
209
210
211
212
213
214
215
216
217
218
219
220
221
222
223
224
225
226
227
228
229
230
231
232
233
234
235
236
237
238
239
240
241
242
243
244
245
246
247
248
249
250
251
252
253
254
255
256
257
258
259
260
261
262
263
264
265
266
267
268
269
270
271
272
273
274
275
276
277
278
279
280
281
282
283
284
285
286
287
288
289
290
291
292
293
294
295
296
297
298
299
300
301
302
303
304
305
306
307
308
309
310
311
312
313
314
315
316
317
318
319
320
321
322
323
324
325
326
327
328
329
330
331
332
333
334
335
336
337
338
339
340
341
342

ExternalForceType_(0/1/2/3/4) 1 343 int
0
0
0
0
0
0
0
0
0
0
0
0
0
0
0
0
0
0
0
0
0
0
0
0
0
0
0
0
0
0
0
0
0
0
0
0
0
0
0
0
0
0
0
0
0
0
0
0
0
0
0
0
0
0
0
0
0
0
0
0
0
0
0
0
0
0
0
0
0
0
0
0
0
0
0
0
0
0
0
0
0
0
0
0
0
0
0
0
0
0
0
0
0
0
0
0
0
0
0
0
0
0
0
0
0
0
0
0
0
0
0
0
0
0
0
0
0
0
0
0
0
0
0
0
0
0
0
0
0
0
0
0
0
0
0
0
0
0
0
0
0
0
0
0
0
0
0
0
0
0
0
0
0
0
0
0
0
0
0
0
0
0
0
0
0
0
0
0
0
0
0
0
0
0
0
0
0
0
0
0
0
0
0
0
0
0
0
0
0
0
0
0
0
0
0
0
0
0
0
0
0
0
0
0
0
0
0
0
0
0
0
0
0
0
0
0
0
0
0
0
0
0
0
0
0
0
0
0
0
0
0
0
0
0
0
0
0
0
0
0
0
0
0
0
0
0
0
0
0
0
0
0
0
0
0
0
0
0
0
0
0
0
0
0
0
0
0
0
0
0
0
0
0
0
0
0
0
0
0
0
0
0
0
0
0
0
0
0
0
0
0
0
0
0
0
0
0
0
0
0
0
0
0
0
0
0
0
0
0
0
0
0
0
0
0
0
0
0
0
0
0
0
0
0
0
0
0
0
0
0
0
0
0
0
0
0
0
0
0
0
0
0
0

ExternalForce_(N) 3 343 double
0 -3.09568e-05 0
0 -0.000138619 0
0 -2.16714e-05 0
0 -0.000168226 0
0 -8.26002e-05 0
0 -8.9203e-05 0
0 -9.74165e-05 0
0 -7.37906e-05 0
0 -6.68156e-05 0
0 -5.47617e-05 0
0 -3.04981e-05 0
0 -0.000105531 0
0 -4.77758e-05 0
0 -0.000161821 0
0 -2.96713e-05 0
0 -7.9067e-05 0
0 -6.57564e-05 0
0 -0.000106704 0
0 -4.11017e-05 0
0 -8.006e-05 0
0 -6.02474e-05 0
0 -0.000115662 0
0 -2.18875e-05 0
0 -4.17098e-05 0
0 -0.000107827 0
0 -7.27379e-05 0
0 -4.13856e-05 0
0 -3.85027e-05 0
0 -3.029e-05 0
0 -0.000128774 0
0 -7.57947e-05 0
0 -0.000162261 0
0 -0.000116775 0
0 -7.15802e-05 0
0 -3.74431e-05 0
0 -0.000108892 0
0 -3.74072e-05 0
0 -0.000136493 0
0 -6.25303e-05 0
0 -7.85756e-05 0
0 -7.52544e-05 0
0 -0.000116589 0
0 -0.000160874 0
0 -2.73339e-05 0
0 -8.7662e-05 0
0 -2.53184e-05 0
0 -7.42972e-05 0
0 -4.15199e-05 0
0 -0.000128792 0
0 -3.72945e-05 0
0 -2.72189e-05 0
0 -7.03157e-05 0
0 -0.000119003 0
0 -5.02041e-05 0
0 -8.04153e-05 0
0 -4.4939e-05 0
0 -2.74192e-05 0
0 -3.19929e-05 0
0 -4.04607e-05 0
0 -2.07889e-05 0
0 -3.28809e-05 0
0 -3.54797e-05 0
0 -0.000153858 0
0 -7.19739e-05 0
0 -8.09026e-05 0
0 -4.90862e-05 0
0 -2.77255e-05 0
0 -7.06591e-05 0
0 -3.20606e-05 0
0 -4.10794e-05 0
0 -1.98932e-05 0
0 -2.37551e-05 0
0 -3.0591e-05 0
0 -5.86107e-05 0
0 -5.75946e-05 0
0 -4.01595e-05 0
0 -5.35099e-05 0
0 -2.24477e-05 0
0 -4.41213e-05 0
0 -4.29866e-05 0
0 -4.42325e-05 0
0 -4.30889e-05 0
0 -4.19155e-05 0
0 -5.21923e-05 0
0 -1.5029e-05 0
0 -2.34331e-05 0
0 -1.9903e-05 0
0 -4.30461e-05 0
0 -3.11931e-05 0
0 -3.08326e-05 0
0 -4.52797e-05 0
0 -5.7648e-05 0
0 -8.02544e-05 0
0 -2.43623e-05 0
0 -0.000150893 0
0 -3.43039e-05 0
0 -7.21258e-05 0
0 -1.97489e-05 0
0 -2.00202e-05 0
0 -7.83017e-05 0
0 -4.32908e-05 0
0 -7.00326e-05 0
0 -1.17841e-05 0
0 -4.93779e-05 0
0 -1.58193e-05 0
0 -4.04762e-05 0
0 -8.57147e-05 0
0 -4.2953e-05 0
0 -7.82027e-05 0
0 -2.09499e-05 0
0 -3.31713e-05 0
0 -9.30599e-05 0
0 -7.26197e-05 0
0 -1.76801e-05 0
0 -2.06228e-05 0
0 -7.8371e-05 0
0 -1.84411e-05 0
0 -7.30662e-05 0
0 -4.11806e-05 0
0 -2.3265e-05 0
0 -4.23503e-05 0
0 -5.94919e-05 0
0 -4.22718e-05 0
0 -2.12723e-05 0
0 -1.86252e-05 0
0 -1.77849e-05 0
0 -3.82356e-05 0
0 -2.39658e-05 0
0 -1.62481e-05 0
0 -7.86148e-05 0
0 -1.61387e-05 0
0 -2.34763e-05 0
0 -2.95637e-05 0
0 -2.93742e-05 0
0 -1.33947e-05 0
0 -1.83735e-05 0
0 -2.05639e-05 0
0 -1.91062e-05 0
0 -1.84053e-05 0
0 -6.25793e-05 0
0 -4.49914e-05 0
0 -1.98914e-05 0
0 -1.58922e-05 0
0 -2.367e-05 0
0 -3.81266e-05 0
0 -4.36518e-05 0
0 -2.25472e-05 0
0 -0.000115119 0
0 -3.05886e-05 0
0 -1.32828e-05 0
0 -3.38507e-05 0
0 -1.78391e-05 0
0 -2.88237e-05 0
0 -1.34771e-05 0
0 -2.36876e-05 0
0 -2.06453e-05 0
0 -2.58912e-05 0
0 -2.10097e-05 0
0 -1.7602e-05 0
0 -3.13896e-05 0
0 -1.34386e-05 0
0 -2.38863e-05 0
0 -2.04203e-05 0
0 -1.33426e-05 0
0 -2.13076e-05 0
0 -1.86316e-05 0
0 -3.10974e-05 0
0 -2.56228e-05 0
0 -2.33161e-05 0
0 -1.57181e-05 0
0 -1.87061e-05 0
0 -5.38771e-05 0
0 -1.84308e-05 0
0 -3.08341e-05 0
0 -2.91652e-05 0
0 -1.16203e-05 0
0 -1.85667e-05 0
0 -2.00287e-05 0
0 -2.68375e-05 0
0 -2.37799e-05 0
0 -3.16945e-05 0
0 -3.13676e-05 0
0 -3.15313e-05 0
0 -1.90796e-05 0
0 -1.58134e-05 0
0 -1.83326e-05 0
0 -3.16308e-05 0
0 -2.07128e-05 0
0 -2.91276e-05 0
0 -6.03597e-05 0
0 -2.26581e-05 0
0 -2.35174e-05 0
0 -2.33506e-05 0
0 -2.59482e-05 0
0 -1.63393e-05 0
0 -1.78912e-05 0
0 -2.02658e-05 0
0 -5.62379e-05 0
0 -2.04507e-05 0
0 -2.14176e-05 0
0 -2.38895e-05 0
0 -3.05955e-05 0
0 -3.11287e-05 0
0 -2.01544e-05 0
0 -1.92198e-05 0
0 -2.99909e-05 0
0 -6.32085e-05 0
0 -2.04829e-05 0
0 -2.67435e-05 0
0 -2.11611e-05 0
0 -1.83262e-05 0
0 -1.96474e-05 0
0 -2.0699e-05 0
0 -2.83503e-05 0
0 -2.27807e-05 0
0 -2.35234e-05 0
0 -1.93874e-05 0
0 -6.29086e-05 0
0 -2.12117e-05 0
0 -3.22943e-05 0
0 -2.06229e-05 0
0 -2.61501e-05 0
0 -1.90721e-05 0
0 -2.86319e-05 0
0 -2.53212e-05 0
0 -2.07681e-05 0
0 -2.05553e-05 0
0 -1.88077e-05 0
0 -6.92631e-05 0
0 -2.20924e-05 0
0 -2.02457e-05 0
0 -6.16224e-05 0
0 -2.08117e-05 0
0 -2.85397e-05 0
0 -2.08875e-05 0
0 -6.32617e-05 0
0 -1.39008e-05 0
0 -2.0289e-05 0
0 -6.45558e-05 0
0 -2.47785e-05 0
0 -2.35177e-05 0
0 -7.28089e-06 0
0 -2.18143e-05 0
0 -6.93323e-06 0
0 -6.87344e-06 0
0 -8.76768e-06 0
0 -2.48719e-05 0
0 -2.22231e-05 0
0 -1.31068e-05 0
0 -7.69816e-06 0
0 -2.27889e-05 0
0 -5.95166e-06 0
0 -6.55579e-06 0
0 -6.71305e-06 0
0 -2.46468e-05 0
0 -2.27228e-05 0
0 -7.6878e-06 0
0 -6.67903e-06 0
0 -6.10861e-05 0
0 -6.6189e-06 0
0 -6.52665e-06 0
0 -6.87836e-06 0
0 -1.78856e-05 0
0 -1.87072e-05 0
0 -6.73674e-06 0
0 -6.91401e-06 0
0 -1.82903e-05 0
0 -2.2423e-05 0
0 -6.67521e-06 0
0 -7.02401e-06 0
0 -1.78908e-05 0
0 -5.89658e-06 0
0 -1.98938e-05 0
0 -7.3162e-06 0
0 -5.63509e-06 0
0 -1.76631e-05 0
0 -1.42638e-05 0
0 -2.22707e-05 0
0 -1.77204e-05 0
0 -2.11264e-05 0
0 -1.75686e-05 0
0 -1.76047e-05 0
0 -6.69346e-06 0
0 -2.20467e-05 0
0 -1.42479e-05 0
0 -1.76144e-05 0
0 -6.84615e-06 0
0 -6.12404e-06 0
0 -6.50125e-06 0
0 -1.41879e-05 0
0 -1.37476e-05 0
0 -2.11168e-05 0
0 -1.79377e-05 0
0 -1.37282e-05 0
0 -1.41198e-05 0
0 -2.15061e-05 0
0 -6.84475e-06 0
0 -1.74349e-05 0
0 -1.75758e-05 0
0 -6.41828e-06 0
0 -7.20025e-06 0
0 -2.30432e-05 0
0 -6.96894e-06 0
0 -6.44499e-06 0
0 -6.14414e-06 0
0 -2.14766e-05 0
0 -6.00855e-06 0
0 -5.92427e-06 0
0 -5.81567e-06 0
0 -5.02303e-06 0
0 -5.01945e-06 0
0 -4.85271e-06 0
0 -4.87573e-06 0
0 -4.8684e-06 0
0 -5.22951e-06 0
0 -4.84801e-06 0
0 -4.88396e-06 0
0 -4.77612e-06 0
0 -4.81304e-06 0
0 -4.85251e-06 0
0 -4.8555e-06 0
0 -4.82575e-06 0
0 -4.80313e-06 0
0 -4.86923e-06 0
0 -4.85781e-06 0
0 -4.73027e-06 0
0 -1.08748e-05 0
0 -5.22863e-06 0
0 -5.34413e-06 0
0 -5.26459e-06 0
0 -5.05624e-06 0
0 -4.92238e-06 0
0 -5.43253e-06 0
0 -5.43253e-06 0
0 -5.43253e-06 0
0 -5.43253e-06 0
0 -5.43253e-06 0
0 -5.43253e-06 0
0 -5.40321e-06 0
0 -5.40321e-06 0
0 -7.3113e-06 0
0 -6.98147e-06 0
0 -4.8949e-06 0

