# vtk DataFile Version 4.2
vtk output
ASCII
DATASET UNSTRUCTURED_GRID

POINTS 343 double
0.00112927 0.004195 -8.91634e-08
0.00218424 0.00498245 0.00217514
0 0.00419538 0.00112517
0.00194059 0.00195449 0.00194197
0.00519974 0.00240569 0.00503262
0.00520271 0.00382848 0.00639751
0.00767476 0.0047714 0.0050007
0.00626656 0.00484773 0.0036933
0.00687863 0.00328584 0.00691438
0.00502233 0.00499088 0.00500014
0.00420175 0.00111752 0.00999874
0.00531005 0.00207899 0.00790391
0.00421156 -7.65288e-06 0.00831691
0.00202228 0.00200259 0.00803309
0.00430898 0.00253207 0.0099988
0.00700359 0.00644279 0.00694722
0.00645746 0.00617908 0.00518396
0.00227247 0.00218464 0.00514586
0 0.00143586 0.00417514
0.00160335 0.0034663 0.00403676
0.00688302 0.00319129 0.00316374
0.00779569 0.00220994 0.00506581
0 0.00270918 0.00154168
0.00418538 0.00142792 1.36044e-06
0.00503928 0.00218666 0.00219953
0.003988 0.00352591 0.0016041
0.001352 -3.27463e-07 0.00405984
0.0042084 -7.83283e-06 0.00168931
0.00264534 0.00695142 4.54378e-07
0.0019512 0.00805286 0.00194474
0.00411616 0.00624711 0.00164612
0.00806026 0.00797991 0.00799741
0.00801737 0.00481099 0.00802247
0.00844842 0.00607384 0.00594957
0.0100811 0.00881636 0.00419554
0.0076328 0.00763027 0.00496534
0.00863658 0.00997216 0.00416918
0.00803983 0.00796496 0.00201965
0.00355539 0.00303599 0.00695932
0.00446231 0.00366088 0.00832375
0.00391312 0.00160011 0.00596886
0.00503872 0.00766616 0.00767644
0.00200154 0.00800793 0.00798935
0.00284724 0.00999676 0.0071268
0.00394323 0.00839827 0.00595764
0 0.00695361 0.00262895
0.00165643 0.00623927 0.0040877
0 0.0040177 0.00850214
0.002328 0.00498566 0.00766127
0.00144083 0.00417452 0.00999971
0.00722336 0.00711345 0.00999714
0.00615731 0.00596777 0.00841704
0.0020648 0.00794155 0.00474159
0.00306252 0.00694266 0.00646751
0.00159613 0.00607843 0.00592581
0.0100625 0.00577612 0.00831551
0 0.00718191 0.00711644
0.00159489 0.00577343 -9.77713e-08
0 0.00577432 0.00158701
0.0100704 0.00714898 0.00711559
0.0028825 0.003349 0.00999924
0.0100423 0.0014044 0.00417782
0.00809212 0.00193968 0.00198278
0.00844801 0.00349762 0.00400105
0.00374629 0.00164762 0.00412828
0.0015193 0.00999992 0.00581476
0.00282337 -3.38758e-06 0.00712755
0.00614671 0.00416897 0.00837561
0.0100723 0.00724065 0.00419784
0.00858477 -2.41913e-05 0.00417025
0.00336379 0.0028693 8.18192e-07
0.00271342 0.00153876 0.00999932
0.00283338 -3.68304e-06 0.00283188
0.00482675 0.00519268 0.00755393
0.00317645 0.00314594 0.00316722
0 0.00849157 0.00581511
0.00489493 0.00366821 0.00378681
0.00154605 0.00270877 -1.22767e-07
0.00583912 0.00831274 0.00999743
0.00602876 0.00998557 0.00850446
0.00424376 0.00999241 0.0083169
0.00404416 0.00849689 0.00999816
0.0100781 0.00845781 0.00581544
0.00316792 0.0068332 0.00315077
0 0.00748929 0.00137438
0.00138273 0.00748922 -2.05615e-07
0 0.00287343 0.00335182
0 0.00580816 0.00831736
0 0.00429792 0.00253898
0.00255056 0.00429571 4.59728e-07
0.00144171 0.00581931 0.00999969
0.00520901 0.00646656 0.00639999
0.00362513 0.00650886 0.00823338
0.00697365 0.00261041 0.00999771
0.00804926 0.00193653 0.00803422
0.00698601 -1.77451e-05 0.00308421
0.00603806 0.0016509 0.00361415
0.01005 0.00284188 0.00335534
0 0.00140616 0.00256446
0.00641863 0.00821286 0.00642044
0.00583594 0.00142198 2.93806e-06
0.00606319 0.00353883 0.00160565
0.00317959 0.00999562 0.00582493
0.00863015 0.00997238 0.00583328
0.00256983 0.00140292 5.32487e-07
0.00598792 -1.38004e-05 0.00149698
0.00632748 0.00827292 0.00361835
0.0085785 -2.40281e-05 0.00583388
0.00622298 0.00165887 0.00636496
0.00140921 0.00256424 0.00999977
0.00716784 0.00716304 3.57787e-06
0.00520353 0.00767991 0.00217022
0.00597965 0.00608096 0.00160412
0 0.00686719 0.00578184
0.0100433 0.00137462 0.00256873
0.00178173 0.00360996 0.00640767
0.0100803 0.00845274 0.0026273
0.00846544 0.00616476 0.00413455
0.00603239 0.00998464 0.00149588
0.00698267 -1.74577e-05 0.0069258
0.0100413 0.00140414 0.00582039
0.00843611 0.00354964 0.00606107
0.00150929 -5.26703e-07 0.00581499
0 0.0013659 0.00748679
0.0013703 -4.38841e-07 0.00752873
0.0100692 0.0068342 0.0057824
0.00586259 0.00847787 2.66721e-06
0 0.0075208 0.00859127
0.00137293 0.00748658 0.00999964
0.00426095 0.0081988 0.00362834
0.00866259 0.00997227 0.00751066
0.0100783 0.00859656 0.00752497
0.00578679 0.00157417 0.00999798
0.0072908 0.00417009 0.00999752
0 0.0057735 0.00666667
0.00137907 0.00999981 0.00752874
0 0.00863025 0.00752641
0.00861287 -2.46049e-05 0.00251108
0.0100717 0.00692008 0.00263263
0.00851524 0.00631694 0.00216632
0.00855778 0.00579941 0.00999693
0.00751006 0.00135431 0.00999747
0.00861092 -2.43262e-05 0.00751092
0.0100403 0.00133471 0.00748579
0 0.00143551 0.00581971
0.00598465 -1.34833e-05 0.00850443
0.00421671 -7.87869e-06 0.00340046
0.00797791 0.00468575 0.00203781
0.0100578 0.00426605 0.00254318
0.00426222 0.00999201 0.00666578
0.00285782 0.00999675 0.00283177
0.00131375 -3.68497e-07 0.00241811
0 0.00727418 0.00419576
0.010063 0.00574153 0.00666627
0.00703405 0.00998007 0.00308318
0.00756201 0.00861599 0.00999701
0 0.00574334 0.00336387
0 0.0043297 0.00416652
0.00690633 0.00576793 0.00999749
0.0100487 0.00299102 0.00691474
0.00422794 -7.73913e-06 0.00666614
0.00249728 0.00999725 0.00861098
0.00751228 0.00134544 4.22956e-06
0.00580745 0.00665503 0.00999765
0.0100718 0.00748793 0.00858897
0.00866661 0.0075279 0.00999674
0.00694443 0.00300489 3.83705e-06
0.00338287 0.00573997 9.89451e-07
0.00758836 0.00860843 3.80641e-06
0.00758235 0.00997695 0.00139031
0.00582156 0.0068547 2.6789e-06
0.00701891 0.00635334 0.00303526
0.00753283 -2.03269e-05 0.00139143
0.00289653 0.00499691 0.00999916
0.00435109 0.00582773 0.00999839
0.0043457 0.00416058 0.00999856
0.00757814 0.00997787 0.0086138
0.00247671 -2.88783e-06 0.00861122
0.0100646 0.00571116 0.00336711
0 0.00302218 0.00691532
0.010053 0.00398658 0.00850026
0.00854765 0.00399291 5.13824e-06
0.0100505 0.0026773 0.00154686
0 0.00244495 0.00857025
0.00246134 0.00856783 0.009999
0.00752917 -2.00126e-05 0.00861382
0.00851957 0.0025999 0.00999708
0.00889431 0.00416819 0.00999692
0.0057178 0.00998643 0.00583263
0.00522068 0.0075736 0.00503219
0.00569078 0.00998633 0.00421544
0.00703034 0.00998058 0.00692531
0.00303877 0.00691324 0.00999883
0.0041861 0.00432372 1.73425e-06
0.00283605 -4.0152e-06 0.00440463
0.00315356 -4.41424e-06 0.00582533
0.0100585 0.00416332 0.00113055
0.00366487 0.00833214 0.00158898
0.0100567 0.00429789 0.00416888
0.00670743 0.0057574 3.52428e-06
0.00866485 0.0099717 0.00250981
0 0.00848692 0.00262374
0.00136105 0.00999985 0.00405964
0 0.00885053 0.00419359
0.00422855 0.00884266 1.55579e-06
0.00424213 0.00999171 0.00168855
0.00502302 0.00478295 0.00238016
0.00725793 0.004503 4.04105e-06
0.00564909 -1.27144e-05 0.0042165
0.0056761 -1.26777e-05 0.00583321
0.0013226 0.00999983 0.00241778
0.00860827 0.00241987 5.24755e-06
0.0100562 0.00449024 0.0072186
0.00717608 0.00997962 0.00500043
0.00576297 0.00335235 0.0099981
0.00245921 -2.81448e-06 0.00135685
0.0100452 0.00241376 0.00856841
0.00240562 0.00478967 0.00499976
0.00586178 0.00431778 3.10661e-06
0.00837067 0.00578365 4.70662e-06
0.00552484 0.00998751 0.00721944
0.0100558 0.0042985 0.00583394
0.00545006 0.00998719 0.00277639
0.00712762 -1.8039e-05 0.00500139
0.00285973 0.0099968 0.00440409
0 0.00452174 0.00721958
0.00454862 0.00721314 0.00999811
0.00548379 -1.18256e-05 0.00721933
0.00362006 0.00506986 0.00359649
0.00428781 0.00999184 0.00500782
0.00425268 -7.82666e-06 0.00500853
0.00368793 0.00521287 0.0061743
0 0.005744 0.00499998
0 0.00433013 0.00583333
0.00502932 0.0057355 2.39141e-06
0.00501406 0.0063306 0.00355435
0.00540911 -1.19629e-05 0.0027775
0.0100635 0.00571212 0.00500132
0.00371105 0.00640377 0.00484368
0.0057705 0.00498919 0.00999798
0.0100662 0.00574179 0.00159196
0 0.00666667 0
0.00865616 0.00749431 4.6945e-06
0.00333682 -5.89834e-06 1.50504e-06
0 0.01 0.00666667
0.00504168 0.00998905 0.00999812
0 0.00288419 0.00499914
0.0100757 0.00745535 0.00137938
0.0100726 0.00663335 5.73104e-06
0 0.005 0.01
0.00501729 0.00287469 2.23618e-06
0 0.005 0
0.0100364 -3.02957e-05 0.00333706
0.0100867 0.00996439 0.00666587
0.00422505 0.00726775 1.62582e-06
0.0100488 0.00285307 0.00500075
0.00500831 -1.09313e-05 2.50264e-06
0 0 0.00666667
0.00381202 0.00361205 0.00522611
0.00500455 -1.0619e-05 0.00999813
0.0100346 -3.00653e-05 0.00666643
0 0 0.005
0.00885901 0.00997041 0.001224
0.0100831 0.00874514 0.00122498
0.0100354 -3.01041e-05 0.00500173
0.0100639 0.0049675 6.05058e-06
0.00122233 0.00121927 -1.84024e-07
0 0.00122008 0.00122008
0 0.00333333 0.01
0 0.00666667 0.01
0.0088535 0.00875137 4.67945e-06
0.0100886 0.00996397 0.00333586
0.00425149 0.00999178 0.00339963
0.010067 0.0066344 0.00999647
0 0.00333333 0
0 0.00122008 0.00877992
0.00122074 -6.59024e-07 0.0087795
0.00122197 0.00121961 0.00999992
0.00885439 0.00997125 0.00877751
0.0012272 0.00877952 0.00999964
0 0.00877992 0.00877992
0.0100787 0.00874602 0.00877744
0.00672849 0.009981 2.75359e-06
0.0100433 0.0011885 0.00122562
0.0012287 0.00999953 0.00878002
0.00884737 0.00875231 0.00999669
0.0100581 0.0049684 0.00999659
0 0 0.00333333
0.00668142 -1.67867e-05 3.85316e-06
0.00880683 -2.56475e-05 0.00122523
0.0012124 -5.98458e-07 0.00121208
0 0.00877992 0.00122008
0.00122845 0.00877954 -3.62419e-08
0.00122087 0.00999959 0.00121123
0.0100391 0.0011889 0.00877771
0.00880802 0.00119436 0.00999696
0.00667685 -1.64926e-05 0.00999738
0.00881362 0.00119401 5.48551e-06
0.00880264 -2.53168e-05 0.00877741
0.0100553 0.00330132 6.24775e-06
0.00336074 0.00999438 0.00999912
0.00248069 0.00999743 0.00135637
0.00672329 0.00998195 0.00999766
0.0100495 0.00330247 0.00999669
0 0.01 0.005
0.00264409 0.00848434 5.15163e-07
0.0100875 0.00996414 0.00500108
0 0.01 0.00333333
0 0.00166667 0
0.0100376 -3.06391e-05 0.001672
0 0.00166667 0.01
0 0.00833333 0
0.0100819 0.00829867 5.69426e-06
0.0100339 -3.03328e-05 0.00833136
0.0100899 0.00996376 0.00167096
0.0100859 0.00996453 0.00833124
0.00167983 0.00999826 0.00999966
0 0.01 0.00833333
0.00840978 0.00997246 4.04102e-06
0.0083583 -2.38215e-05 5.07323e-06
0.00835293 -2.36477e-05 0.00999703
0.0084037 0.00997344 0.00999697
0 0 0.00833333
0.0100761 0.00829986 0.00999641
0.00166715 -1.77837e-06 2.18236e-07
0 0 0.00166667
0.00336497 0.00999462 8.17257e-07
0.0100411 0.00163521 0.0099967
0.0100468 0.00163482 6.30755e-06
0.0016668 -1.52498e-06 0.00999981
0.00168143 0.00999869 9.20325e-08
0 0.01 0.00166667
0.0100853 0.0099646 0.00999657
0 0 0.01
0.0100913 0.00996362 5.31301e-06
0.010033 -3.05877e-05 0.00999656
0 0.01 0.01
0.0100386 -3.08448e-05 6.38827e-06
0 0.01 0
0 0 0
0.0050468 0.00998827 1.78138e-06
0.00333436 -5.3848e-06 0.00999871
0 0.00833333 0.01

CELLS 343 686
1 0
1 1
1 2
1 3
1 4
1 5
1 6
1 7
1 8
1 9
1 10
1 11
1 12
1 13
1 14
1 15
1 16
1 17
1 18
1 19
1 20
1 21
1 22
1 23
1 24
1 25
1 26
1 27
1 28
1 29
1 30
1 31
1 32
1 33
1 34
1 35
1 36
1 37
1 38
1 39
1 40
1 41
1 42
1 43
1 44
1 45
1 46
1 47
1 48
1 49
1 50
1 51
1 52
1 53
1 54
1 55
1 56
1 57
1 58
1 59
1 60
1 61
1 62
1 63
1 64
1 65
1 66
1 67
1 68
1 69
1 70
1 71
1 72
1 73
1 74
1 75
1 76
1 77
1 78
1 79
1 80
1 81
1 82
1 83
1 84
1 85
1 86
1 87
1 88
1 89
1 90
1 91
1 92
1 93
1 94
1 95
1 96
1 97
1 98
1 99
1 100
1 101
1 102
1 103
1 104
1 105
1 106
1 107
1 108
1 109
1 110
1 111
1 112
1 113
1 114
1 115
1 116
1 117
1 118
1 119
1 120
1 121
1 122
1 123
1 124
1 125
1 126
1 127
1 128
1 129
1 130
1 131
1 132
1 133
1 134
1 135
1 136
1 137
1 138
1 139
1 140
1 141
1 142
1 143
1 144
1 145
1 146
1 147
1 148
1 149
1 150
1 151
1 152
1 153
1 154
1 155
1 156
1 157
1 158
1 159
1 160
1 161
1 162
1 163
1 164
1 165
1 166
1 167
1 168
1 169
1 170
1 171
1 172
1 173
1 174
1 175
1 176
1 177
1 178
1 179
1 180
1 181
1 182
1 183
1 184
1 185
1 186
1 187
1 188
1 189
1 190
1 191
1 192
1 193
1 194
1 195
1 196
1 197
1 198
1 199
1 200
1 201
1 202
1 203
1 204
1 205
1 206
1 207
1 208
1 209
1 210
1 211
1 212
1 213
1 214
1 215
1 216
1 217
1 218
1 219
1 220
1 221
1 222
1 223
1 224
1 225
1 226
1 227
1 228
1 229
1 230
1 231
1 232
1 233
1 234
1 235
1 236
1 237
1 238
1 239
1 240
1 241
1 242
1 243
1 244
1 245
1 246
1 247
1 248
1 249
1 250
1 251
1 252
1 253
1 254
1 255
1 256
1 257
1 258
1 259
1 260
1 261
1 262
1 263
1 264
1 265
1 266
1 267
1 268
1 269
1 270
1 271
1 272
1 273
1 274
1 275
1 276
1 277
1 278
1 279
1 280
1 281
1 282
1 283
1 284
1 285
1 286
1 287
1 288
1 289
1 290
1 291
1 292
1 293
1 294
1 295
1 296
1 297
1 298
1 299
1 300
1 301
1 302
1 303
1 304
1 305
1 306
1 307
1 308
1 309
1 310
1 311
1 312
1 313
1 314
1 315
1 316
1 317
1 318
1 319
1 320
1 321
1 322
1 323
1 324
1 325
1 326
1 327
1 328
1 329
1 330
1 331
1 332
1 333
1 334
1 335
1 336
1 337
1 338
1 339
1 340
1 341
1 342

CELL_TYPES 343
1
1
1
1
1
1
1
1
1
1
1
1
1
1
1
1
1
1
1
1
1
1
1
1
1
1
1
1
1
1
1
1
1
1
1
1
1
1
1
1
1
1
1
1
1
1
1
1
1
1
1
1
1
1
1
1
1
1
1
1
1
1
1
1
1
1
1
1
1
1
1
1
1
1
1
1
1
1
1
1
1
1
1
1
1
1
1
1
1
1
1
1
1
1
1
1
1
1
1
1
1
1
1
1
1
1
1
1
1
1
1
1
1
1
1
1
1
1
1
1
1
1
1
1
1
1
1
1
1
1
1
1
1
1
1
1
1
1
1
1
1
1
1
1
1
1
1
1
1
1
1
1
1
1
1
1
1
1
1
1
1
1
1
1
1
1
1
1
1
1
1
1
1
1
1
1
1
1
1
1
1
1
1
1
1
1
1
1
1
1
1
1
1
1
1
1
1
1
1
1
1
1
1
1
1
1
1
1
1
1
1
1
1
1
1
1
1
1
1
1
1
1
1
1
1
1
1
1
1
1
1
1
1
1
1
1
1
1
1
1
1
1
1
1
1
1
1
1
1
1
1
1
1
1
1
1
1
1
1
1
1
1
1
1
1
1
1
1
1
1
1
1
1
1
1
1
1
1
1
1
1
1
1
1
1
1
1
1
1
1
1
1
1
1
1
1
1
1
1
1
1
1
1
1
1
1
1
1
1
1
1
1
1
1
1
1
1
1
1
1
1
1
1
1
1
1
1
1
1
1
1
1
1
1
1
1
1
1
1
1
1
1
1

POINT_DATA 343
FIELD FieldData 3

ExternalForceID_(#) 1 343 int
0
1
2
3
4
5
6
7
8
9
10
11
12
13
14
15
16
17
18
19
20
21
22
23
24
25
26
27
28
29
30
31
32
33
34
35
36
37
38
39
40
41
42
43
44
45
46
47
48
49
50
51
52
53
54
55
56
57
58
59
60
61
62
63
64
65
66
67
68
69
70
71
72
73
74
75
76
77
78
79
80
81
82
83
84
85
86
87
88
89
90
91
92
93
94
95
96
97
98
99
100
101
102
103
104
105
106
107
108
109
110
111
112
113
114
115
116
117
118
119
120
121
122
123
124
125
126
127
128
129
130
131
132
133
134
135
136
137
138
139
140
141
142
143
144
145
146
147
148
149
150
151
152
153
154
155
156
157
158
159
160
161
162
163
164
165
166
167
168
169
170
171
172
173
174
175
176
177
178
179
180
181
182
183
184
185
186
187
188
189
190
191
192
193
194
195
196
197
198
199
200
201
202
203
204
205
206
207
208
209
210
211
212
213
214
215
216
217
218
219
220
221
222
223
224
225
226
227
228
229
230
231
232
233
234
235
236
237
238
239
240
241
242
243
244
245
246
247
248
249
250
251
252
253
254
255
256
257
258
259
260
261
262
263
264
265
266
267
268
269
270
271
272
273
274
275
276
277
278
279
280
281
282
283
284
285
286
287
288
289
290
291
292
293
294
295
296
297
298
299
300
301
302
303
304
305
306
307
308
309
310
311
312
313
314
315
316
317
318
319
320
321
322
323
324
325
326
327
328
329
330
331
332
333
334
335
336
337
338
339
340
341
342

ExternalForceType_(0/1/2/3/4) 1 343 int
0
0
0
0
0
0
0
0
0
0
0
0
0
0
0
0
0
0
0
0
0
0
0
0
0
0
0
0
0
0
0
0
0
0
0
0
0
0
0
0
0
0
0
0
0
0
0
0
0
0
0
0
0
0
0
0
0
0
0
0
0
0
0
0
0
0
0
0
0
0
0
0
0
0
0
0
0
0
0
0
0
0
0
0
0
0
0
0
0
0
0
0
0
0
0
0
0
0
0
0
0
0
0
0
0
0
0
0
0
0
0
0
0
0
0
0
0
0
0
0
0
0
0
0
0
0
0
0
0
0
0
0
0
0
0
0
0
0
0
0
0
0
0
0
0
0
0
0
0
0
0
0
0
0
0
0
0
0
0
0
0
0
0
0
0
0
0
0
0
0
0
0
0
0
0
0
0
0
0
0
0
0
0
0
0
0
0
0
0
0
0
0
0
0
0
0
0
0
0
0
0
0
0
0
0
0
0
0
0
0
0
0
0
0
0
0
0
0
0
0
0
0
0
0
0
0
0
0
0
0
0
0
0
0
0
0
0
0
0
0
0
0
0
0
0
0
0
0
0
0
0
0
0
0
0
0
0
0
0
0
0
0
0
0
0
0
0
0
0
0
0
0
0
0
0
0
0
0
0
0
0
0
0
0
0
0
0
0
0
0
0
0
0
0
0
0
0
0
0
0
0
0
0
0
0
0
0
0
0
0
0
0
0
0
0
0
0
0
0
0
0
0
0
0
0
0
0
0
0
0
0
0
0
0
0
0
0
0
0
0
0
0
0

ExternalForce_(N) 3 343 double
0 -3.09568e-05 0
0 -0.000138619 0
0 -2.16714e-05 0
0 -0.000168226 0
0 -8.26002e-05 0
0 -8.9203e-05 0
0 -9.74165e-05 0
0 -7.37906e-05 0
0 -6.68156e-05 0
0 -5.47617e-05 0
0 -3.04981e-05 0
0 -0.000105531 0
0 -4.77758e-05 0
0 -0.000161821 0
0 -2.96713e-05 0
0 -7.9067e-05 0
0 -6.57564e-05 0
0 -0.000106704 0
0 -4.11017e-05 0
0 -8.006e-05 0
0 -6.02474e-05 0
0 -0.000115662 0
0 -2.18875e-05 0
0 -4.17098e-05 0
0 -0.000107827 0
0 -7.27379e-05 0
0 -4.13856e-05 0
0 -3.85027e-05 0
0 -3.029e-05 0
0 -0.000128774 0
0 -7.57947e-05 0
0 -0.000162261 0
0 -0.000116775 0
0 -7.15802e-05 0
0 -3.74431e-05 0
0 -0.000108892 0
0 -3.74072e-05 0
0 -0.000136493 0
0 -6.25303e-05 0
0 -7.85756e-05 0
0 -7.52544e-05 0
0 -0.000116589 0
0 -0.000160874 0
0 -2.73339e-05 0
0 -8.7662e-05 0
0 -2.53184e-05 0
0 -7.42972e-05 0
0 -4.15199e-05 0
0 -0.000128792 0
0 -3.72945e-05 0
0 -2.72189e-05 0
0 -7.03157e-05 0
0 -0.000119003 0
0 -5.02041e-05 0
0 -8.04153e-05 0
0 -4.4939e-05 0
0 -2.74192e-05 0
0 -3.19929e-05 0
0 -4.04607e-05 0
0 -2.07889e-05 0
0 -3.28809e-05 0
0 -3.54797e-05 0
0 -0.000153858 0
0 -7.19739e-05 0
0 -8.09026e-05 0
0 -4.90862e-05 0
0 -2.77255e-05 0
0 -7.06591e-05 0
0 -3.20606e-05 0
0 -4.10794e-05 0
0 -1.98932e-05 0
0 -2.37551e-05 0
0 -3.0591e-05 0
0 -5.86107e-05 0
0 -5.75946e-05 0
0 -4.01595e-05 0
0 -5.35099e-05 0
0 -2.24477e-05 0
0 -4.41213e-05 0
0 -4.29866e-05 0
0 -4.42325e-05 0
0 -4.30889e-05 0
0 -4.19155e-05 0
0 -5.21923e-05 0
0 -1.5029e-05 0
0 -2.34331e-05 0
0 -1.9903e-05 0
0 -4.30461e-05 0
0 -3.11931e-05 0
0 -3.08326e-05 0
0 -4.52797e-05 0
0 -5.7648e-05 0
0 -8.02544e-05 0
0 -2.43623e-05 0
0 -0.000150893 0
0 -3.43039e-05 0
0 -7.21258e-05 0
0 -1.97489e-05 0
0 -2.00202e-05 0
0 -7.83017e-05 0
0 -4.32908e-05 0
0 -7.00326e-05 0
0 -1.17841e-05 0
0 -4.93779e-05 0
0 -1.58193e-05 0
0 -4.04762e-05 0
0 -8.57147e-05 0
0 -4.2953e-05 0
0 -7.82027e-05 0
0 -2.09499e-05 0
0 -3.31713e-05 0
0 -9.30599e-05 0
0 -7.26197e-05 0
0 -1.76801e-05 0
0 -2.06228e-05 0
0 -7.8371e-05 0
0 -1.84411e-05 0
0 -7.30662e-05 0
0 -4.11806e-05 0
0 -2.3265e-05 0
0 -4.23503e-05 0
0 -5.94919e-05 0
0 -4.22718e-05 0
0 -2.12723e-05 0
0 -1.86252e-05 0
0 -1.77849e-05 0
0 -3.82356e-05 0
0 -2.39658e-05 0
0 -1.62481e-05 0
0 -7.86148e-05 0
0 -1.61387e-05 0
0 -2.34763e-05 0
0 -2.95637e-05 0
0 -2.93742e-05 0
0 -1.33947e-05 0
0 -1.83735e-05 0
0 -2.05639e-05 0
0 -1.91062e-05 0
0 -1.84053e-05 0
0 -6.25793e-05 0
0 -4.49914e-05 0
0 -1.98914e-05 0
0 -1.58922e-05 0
0 -2.367e-05 0
0 -3.81266e-05 0
0 -4.36518e-05 0
0 -2.25472e-05 0
0 -0.000115119 0
0 -3.05886e-05 0
0 -1.32828e-05 0
0 -3.38507e-05 0
0 -1.78391e-05 0
0 -2.88237e-05 0
0 -1.34771e-05 0
0 -2.36876e-05 0
0 -2.06453e-05 0
0 -2.58912e-05 0
0 -2.10097e-05 0
0 -1.7602e-05 0
0 -3.13896e-05 0
0 -1.34386e-05 0
0 -2.38863e-05 0
0 -2.04203e-05 0
0 -1.33426e-05 0
0 -2.13076e-05 0
0 -1.86316e-05 0
0 -3.10974e-05 0
0 -2.56228e-05 0
0 -2.33161e-05 0
0 -1.57181e-05 0
0 -1.87061e-05 0
0 -5.38771e-05 0
0 -1.84308e-05 0
0 -3.08341e-05 0
0 -2.91652e-05 0
0 -1.16203e-05 0
0 -1.85667e-05 0
0 -2.00287e-05 0
0 -2.68375e-05 0
0 -2.37799e-05 0
0 -3.16945e-05 0
0 -3.13676e-05 0
0 -3.15313e-05 0
0 -1.90796e-05 0
0 -1.58134e-05 0
0 -1.83326e-05 0
0 -3.16308e-05 0
0 -2.07128e-05 0
0 -2.91276e-05 0
0 -6.03597e-05 0
0 -2.26581e-05 0
0 -2.35174e-05 0
0 -2.33506e-05 0
0 -2.59482e-05 0
0 -1.63393e-05 0
0 -1.78912e-05 0
0 -2.02658e-05 0
0 -5.62379e-05 0
0 -2.04507e-05 0
0 -2.14176e-05 0
0 -2.38895e-05 0
0 -3.05955e-05 0
0 -3.11287e-05 0
0 -2.01544e-05 0
0 -1.92198e-05 0
0 -2.99909e-05 0
0 -6.32085e-05 0
0 -2.04829e-05 0
0 -2.67435e-05 0
0 -2.11611e-05 0
0 -1.83262e-05 0
0 -1.96474e-05 0
0 -2.0699e-05 0
0 -2.83503e-05 0
0 -2.27807e-05 0
0 -2.35234e-05 0
0 -1.93874e-05 0
0 -6.29086e-05 0
0 -2.12117e-05 0
0 -3.22943e-05 0
0 -2.06229e-05 0
0 -2.61501e-05 0
0 -1.90721e-05 0
0 -2.86319e-05 0
0 -2.53212e-05 0
0 -2.07681e-05 0
0 -2.05553e-05 0
0 -1.88077e-05 0
0 -6.92631e-05 0
0 -2.20924e-05 0
0 -2.02457e-05 0
0 -6.16224e-05 0
0 -2.08117e-05 0
0 -2.85397e-05 0
0 -2.08875e-05 0
0 -6.32617e-05 0
0 -1.39008e-05 0
0 -2.0289e-05 0
0 -6.45558e-05 0
0 -2.47785e-05 0
0 -2.35177e-05 0
0 -7.28089e-06 0
0 -2.18143e-05 0
0 -6.93323e-06 0
0 -6.87344e-06 0
0 -8.76768e-06 0
0 -2.48719e-05 0
0 -2.22231e-05 0
0 -1.31068e-05 0
0 -7.69816e-06 0
0 -2.27889e-05 0
0 -5.95166e-06 0
0 -6.55579e-06 0
0 -6.71305e-06 0
0 -2.46468e-05 0
0 -2.27228e-05 0
0 -7.6878e-06 0
0 -6.67903e-06 0
0 -6.10861e-05 0
0 -6.6189e-06 0
0 -6.52665e-06 0
0 -6.87836e-06 0
0 -1.78856e-05 0
0 -1.87072e-05 0
0 -6.73674e-06 0
0 -6.91401e-06 0
0 -1.82903e-05 0
0 -2.2423e-05 0
0 -6.67521e-06 0
0 -7.02401e-06 0
0 -1.78908e-05 0
0 -5.89658e-06 0
0 -1.98938e-05 0
0 -7.3162e-06 0
0 -5.63509e-06 0
0 -1.76631e-05 0
0 -1.42638e-05 0
0 -2.22707e-05 0
0 -1.77204e-05 0
0 -2.11264e-05 0
0 -1.75686e-05 0
0 -1.76047e-05 0
0 -6.69346e-06 0
0 -2.20467e-05 0
0 -1.42479e-05 0
0 -1.76144e-05 0
0 -6.84615e-06 0
0 -6.12404e-06 0
0 -6.50125e-06 0
0 -1.41879e-05 0
0 -1.37476e-05 0
0 -2.11168e-05 0
0 -1.79377e-05 0
0 -1.37282e-05 0
0 -1.41198e-05 0
0 -2.15061e-05 0
0 -6.84475e-06 0
0 -1.74349e-05 0
0 -1.75758e-05 0
0 -6.41828e-06 0
0 -7.20025e-06 0
0 -2.30432e-05 0
0 -6.96894e-06 0
0 -6.44499e-06 0
0 -6.14414e-06 0
0 -2.14766e-05 0
0 -6.00855e-06 0
0 -5.92427e-06 0
0 -5.81567e-06 0
0 -5.02303e-06 0
0 -5.01945e-06 0
0 -4.85271e-06 0
0 -4.87573e-06 0
0 -4.8684e-06 0
0 -5.22951e-06 0
0 -4.84801e-06 0
0 -4.88396e-06 0
0 -4.77612e-06 0
0 -4.81304e-06 0
0 -4.85251e-06 0
0 -4.8555e-06 0
0 -4.82575e-06 0
0 -4.80313e-06 0
0 -4.86923e-06 0
0 -4.85781e-06 0
0 -4.73027e-06 0
0 -1.08748e-05 0
0 -5.22863e-06 0
0 -5.34413e-06 0
0 -5.26459e-06 0
0 -5.05624e-06 0
0 -4.92238e-06 0
0 -5.43253e-06 0
0 -5.43253e-06 0
0 -5.43253e-06 0
0 -5.43253e-06 0
0 -5.43253e-06 0
0 -5.43253e-06 0
0 -5.40321e-06 0
0 -5.40321e-06 0
0 -7.3113e-06 0
0 -6.98147e-06 0
0 -4.8949e-06 0

