# vtk DataFile Version 4.2
vtk output
ASCII
DATASET UNSTRUCTURED_GRID

POINTS 343 double
0.00144831 0.00420847 -1.32723e-05
0.00279831 0.00500831 0.00215313
0 0.00419538 0.00112517
0.00249054 0.00197583 0.00192146
0.00650553 0.00242684 0.00499796
0.00650266 0.00387066 0.00639325
0.00940392 0.0048375 0.00497158
0.00777791 0.00490795 0.00362573
0.00846231 0.00332197 0.00694014
0.0063001 0.00504491 0.00496515
0.00520605 0.00113474 0.0100181
0.00659976 0.00209802 0.00792412
0.00523966 -3.19983e-06 0.00832356
0.00257929 0.00202252 0.00801202
0.00534561 0.00255678 0.0100192
0.00859879 0.00653791 0.00698043
0.00798827 0.00626375 0.00515521
0.00290138 0.00220637 0.00512536
0 0.00143586 0.00417514
0.00205508 0.0034834 0.00402066
0.00848846 0.00322124 0.00307745
0.00953785 0.002221 0.0050383
0 0.00270918 0.00154168
0.00522943 0.00144153 -7.41537e-05
0.0063002 0.00220665 0.00212367
0.0050221 0.00356169 0.00154273
0.00173138 1.35504e-05 0.00404813
0.00526422 -5.3141e-06 0.00162886
0.00334338 0.00698327 -4.382e-05
0.00249324 0.0080751 0.00192378
0.00517814 0.00629919 0.0015826
0.00976943 0.00812369 0.008084
0.00974613 0.00488525 0.00810844
0.0102408 0.00618206 0.0059582
0.0119621 0.00901285 0.00414382
0.00933016 0.00776079 0.00493282
0.0104034 0.0101853 0.00411304
0.00978267 0.00811393 0.00189219
0.00448858 0.00306747 0.00693936
0.00557209 0.00369844 0.00833409
0.00493664 0.00161822 0.00594475
0.00626171 0.00773743 0.00768823
0.00255097 0.00802757 0.00796971
0.00358188 0.0100426 0.00710328
0.00495867 0.00845505 0.00593162
0 0.00695361 0.00262895
0.00211898 0.00625824 0.00406955
0 0.0040177 0.00850214
0.0029654 0.0050129 0.00763947
0.00183355 0.0041913 0.00998429
0.00876134 0.00722484 0.0101027
0.00758326 0.00604424 0.0084672
0.00263603 0.00796311 0.0047205
0.00388327 0.00697605 0.00643866
0.00203869 0.00609646 0.0059098
0.0119319 0.00588851 0.00843896
0 0.00718191 0.00711644
0.00203922 0.00579251 -2.01454e-05
0 0.00577432 0.00158701
0.0119455 0.00730727 0.00719807
0.00360453 0.00337622 0.0100015
0.0119519 0.00138354 0.0041232
0.00987527 0.00193875 0.0018502
0.0102688 0.00354116 0.00393444
0.00473884 0.00166548 0.00409673
0.00193819 0.0100186 0.00579892
0.00356288 7.19909e-06 0.00710375
0.0075803 0.0042197 0.00842132
0.0119805 0.00741929 0.00414831
0.0103928 -8.03996e-05 0.00411239
0.00423505 0.00289872 -5.90559e-05
0.0033921 0.00155743 0.010001
0.0035858 3.5786e-06 0.00280622
0.00602699 0.00524291 0.00756335
0.00403825 0.00317694 0.00313933
0 0.00849157 0.00581511
0.00614427 0.00370725 0.00373744
0.00198183 0.00272826 -1.98942e-05
0.00713083 0.00840441 0.0100712
0.00736359 0.010105 0.00856091
0.00526089 0.0100639 0.00832607
0.00500185 0.00855037 0.0100227
0.0119529 0.00864706 0.00583981
0.00402217 0.00686991 0.00312148
0 0.00748929 0.00137438
0.00176711 0.00750423 -1.66757e-05
0 0.00287343 0.00335182
0 0.00580816 0.00831736
0 0.00429792 0.00253898
0.00323376 0.00432584 -4.25152e-05
0.00183379 0.00583397 0.00998515
0.00649819 0.00653366 0.00639177
0.0045482 0.00654999 0.00823322
0.00848684 0.00262874 0.0100852
0.00977508 0.00193737 0.00811664
0.00857892 -4.29823e-05 0.00299503
0.00749155 0.00165852 0.00354628
0.0119671 0.00286234 0.00326286
0 0.00140616 0.00256446
0.00790325 0.00831831 0.00642754
0.00721141 0.0014248 -0.000114561
0.00751494 0.00357448 0.00149984
0.00399941 0.0100469 0.00580134
0.0103861 0.0101826 0.005842
0.00324644 0.00141805 -4.27475e-05
0.00739355 -3.30325e-05 0.00139596
0.00780784 0.0083798 0.00355285
0.010375 -7.88811e-05 0.00584613
0.00769887 0.0016681 0.00636831
0.0017948 0.00258035 0.00998561
0.00876659 0.00728095 -0.000142768
0.00648737 0.00775855 0.00209128
0.00741604 0.00615966 0.00149985
0 0.00686719 0.00578184
0.0119495 0.0013496 0.00245043
0.00227766 0.00362983 0.0063896
0.0119627 0.00864516 0.00251185
0.0102799 0.00627132 0.00407537
0.00741149 0.0101123 0.00139053
0.00854406 -4.83705e-05 0.00695778
0.0119378 0.00138719 0.00584984
0.0102319 0.00358928 0.00608051
0.00192534 1.49092e-05 0.00579987
0 0.0013659 0.00748679
0.00174704 1.19422e-05 0.00751111
0.011972 0.00699315 0.005799
0.00722559 0.00858029 -0.000122552
0 0.0075208 0.00859127
0.00174615 0.00749763 0.0099875
0.00535836 0.00826254 0.00358402
0.010394 0.0101788 0.00758976
0.0119223 0.0087899 0.00762501
0.00710015 0.00158593 0.0100596
0.0088596 0.00422213 0.0100962
0 0.0057735 0.00666667
0.00175808 0.0100176 0.0075117
0 0.00863025 0.00752641
0.0104211 -8.16557e-05 0.00239569
0.0119808 0.00709161 0.00251811
0.0103335 0.00643691 0.00203674
0.0102978 0.00589843 0.0101386
0.00909456 0.00135513 0.0101035
0.01038 -8.00775e-05 0.0075844
0.0119066 0.00131287 0.00758203
0 0.00143551 0.00581971
0.0073571 -3.08195e-05 0.00855182
0.00528888 -9.40565e-06 0.0033524
0.00974872 0.00475634 0.00190792
0.0119757 0.00432674 0.00241271
0.00530922 0.01007 0.00665468
0.00360416 0.0100442 0.0028027
0.00168418 1.20995e-05 0.00240602
0 0.00727418 0.00419576
0.0119577 0.0058468 0.00672817
0.00857785 0.0101388 0.00299614
0.00912855 0.00874899 0.0101146
0 0.00574334 0.00336387
0 0.0043297 0.00416652
0.00840547 0.00584412 0.0100937
0.0119378 0.00301093 0.00699183
0.00528946 -8.22937e-06 0.00665639
0.00313523 0.0100388 0.00860128
0.00916836 0.00133767 -0.000148422
0.00711978 0.00672892 0.0100665
0.0119154 0.00764876 0.00872307
0.010396 0.00766763 0.010146
0.00852932 0.00302689 -0.000134901
0.00426087 0.00578142 -5.87329e-05
0.00922659 0.00875755 -0.00015203
0.00919668 0.010157 0.00126091
0.00720108 0.00693899 -0.000118784
0.00863407 0.00645335 0.00294617
0.00919645 -5.67357e-05 0.00126046
0.00362303 0.0050248 0.0100023
0.00539389 0.00586969 0.0100302
0.00539266 0.00419651 0.0100274
0.00915419 0.0101434 0.00870883
0.00311869 4.53102e-06 0.00859831
0.0119889 0.00581015 0.00327395
0 0.00302218 0.00691532
0.0119204 0.00403437 0.00862748
0.0103427 0.00404048 -0.000179312
0.0119594 0.00269383 0.00138246
0 0.00244495 0.00857025
0.00307637 0.00859704 0.0100018
0.00913811 -5.55227e-05 0.00869922
0.0102483 0.00261422 0.010134
0.0106604 0.00422161 0.0101456
0.007058 0.0101008 0.0058252
0.0065131 0.0076492 0.00500164
0.00703441 0.0101027 0.00416711
0.00855677 0.0101327 0.00696067
0.00379336 0.00694376 0.0100075
0.00524883 0.00436711 -7.76336e-05
0.00359019 6.87576e-06 0.00438048
0.00398214 4.51706e-06 0.00580222
0.0119625 0.00422093 0.000952176
0.00460544 0.00838562 0.00153504
0.0119794 0.00436447 0.00412265
0.00825085 0.00583796 -0.000135009
0.0104313 0.0101878 0.00239918
0 0.00848692 0.00262374
0.00173676 0.0100154 0.00404575
0 0.00885053 0.00419359
0.00526708 0.00891129 -8.0306e-05
0.00529283 0.0100701 0.00162499
0.00629579 0.00483526 0.00230521
0.00889491 0.00456342 -0.000145416
0.00701508 -2.50185e-05 0.00416181
0.00704114 -2.47942e-05 0.00582127
0.001688 0.0100157 0.0024045
0.0104111 0.00243022 -0.00018034
0.0119432 0.00455899 0.0073086
0.00873751 0.0101437 0.00497244
0.00708543 0.00338838 0.010055
0.00311496 2.49127e-06 0.00132621
0.0118997 0.00241731 0.00869796
0.00306663 0.00481735 0.00497617
0.00725631 0.00436447 -0.000116211
0.0101454 0.00589202 -0.000170766
0.00680766 0.0100935 0.00722881
0.0119627 0.00436393 0.00585903
0.00674412 0.0100968 0.00270568
0.00873533 -5.00556e-05 0.00496666
0.0036079 0.0100427 0.00437575
0 0.00452174 0.00721958
0.00561981 0.00727129 0.0100358
0.00679325 -2.17142e-05 0.0072315
0.00459448 0.00511099 0.00356139
0.00536008 0.0100745 0.00497647
0.00533683 -1.25522e-05 0.00497801
0.00466648 0.00525331 0.0061472
0 0.005744 0.00499998
0 0.00433013 0.00583333
0.0062638 0.0057973 -9.87121e-05
0.00628269 0.00639419 0.0034984
0.00671881 -2.1986e-05 0.00270705
0.0119814 0.0058052 0.0049909
0.00470041 0.00644739 0.00481016
0.00709278 0.00504209 0.0100585
0.0119773 0.00584789 0.00142464
0 0.00666667 0
0.010434 0.00764332 -0.000177654
0.00418157 -5.57084e-06 -5.21325e-05
0 0.01 0.00666667
0.00616125 0.010083 0.010047
0 0.00288419 0.00499914
0.0119662 0.00764048 0.00120395
0.0119534 0.00677746 -0.000198028
0 0.005 0.01
0.00624534 0.00290071 -9.58621e-05
0 0.005 0
0.0119146 -0.000118868 0.00324701
0.0118998 0.0102201 0.00673314
0.00528054 0.00732682 -8.08027e-05
0.0119617 0.00286465 0.00498936
0.00620426 -2.54585e-05 -8.65451e-05
0 0 0.00666667
0.00482906 0.003648 0.00519589
0.00615185 -1.81366e-05 0.0100343
0.0118865 -0.000115937 0.00673276
0 0 0.005
0.0106234 0.0101958 0.00106647
0.0119488 0.00895301 0.0010478
0.0119066 -0.0001165 0.00499285
0.0119455 0.00505272 -0.000204116
0.00156861 0.00123218 -1.48884e-05
0 0.00122008 0.00122008
0 0.00333333 0.01
0 0.00666667 0.01
0.0106187 0.00893831 -0.000182293
0.0119283 0.0102247 0.00325441
0.00531814 0.0100722 0.00335181
0.0118771 0.00677007 0.0101851
0 0.00333333 0
0 0.00122008 0.00877992
0.001553 8.73037e-06 0.00876756
0.0015566 0.00123261 0.00998798
0.0105742 0.0101796 0.00890547
0.00156091 0.00879197 0.00998938
0 0.00877992 0.00877992
0.0119003 0.0089436 0.0089213
0.00820469 0.0101361 -0.000130853
0.0119412 0.00115326 0.00105277
0.00156172 0.0100165 0.00876884
0.0105698 0.00892458 0.0101538
0.0118785 0.00505134 0.0101823
0 0 0.00333333
0.00818966 -5.11212e-05 -0.000121956
0.0106151 -8.75295e-05 0.00106626
0.00155177 8.45782e-06 0.00119997
0 0.00877992 0.00122008
0.00156839 0.00879426 -1.4776e-05
0.00155539 0.0100157 0.00119812
0.0118821 0.00116036 0.00891711
0.0105502 0.00117583 0.0101432
0.00812175 -4.29319e-05 0.0100783
0.0106255 0.00116503 -0.000183395
0.0105571 -8.2368e-05 0.00889799
0.0119399 0.00333415 -0.000205848
0.00416188 0.0100497 0.010011
0.00313092 0.0100379 0.00132418
0.00813269 0.0101212 0.0100906
0.011869 0.00332561 0.0101769
0 0.01 0.005
0.00333248 0.00852141 -4.2768e-05
0.0119203 0.0102244 0.0049834
0 0.01 0.00333333
0 0.00166667 0
0.0119119 -0.000117304 0.00151774
0 0.00166667 0.01
0 0.00833333 0
0.0119313 0.00850074 -0.00021
0.0118585 -0.000112342 0.00845741
0.0119232 0.0102237 0.00151423
0.0118743 0.0102143 0.00846289
0.002114 0.0100265 0.00999174
0 0.01 0.00833333
0.0101076 0.0101888 -0.000164049
0.0101021 -8.29953e-05 -0.000164317
0.0100276 -7.21071e-05 0.0101266
0.0100469 0.010165 0.0101399
0 0 0.00833333
0.0118695 0.00848 0.0101871
0.00211963 2.08357e-06 -2.01109e-05
0 0 0.00166667
0.00420388 0.0100542 -5.72989e-05
0.0118529 0.00162352 0.0101767
0.0119262 0.00161535 -0.000204076
0.00210394 5.75946e-06 0.00998982
0.00212816 0.0100251 -2.21135e-05
0 0.01 0.00166667
0.0118518 0.0102084 0.0101856
0 0 0.01
0.0119089 0.010223 -0.000204996
0.0118343 -0.000107921 0.0101746
0 0.01 0.01
0.0119062 -0.000122464 -0.000198198
0 0.01 0
0 0 0
0.00622979 0.0100928 -9.78989e-05
0.00414329 3.88503e-06 0.0100075
0 0.00833333 0.01

CELLS 343 686
1 0
1 1
1 2
1 3
1 4
1 5
1 6
1 7
1 8
1 9
1 10
1 11
1 12
1 13
1 14
1 15
1 16
1 17
1 18
1 19
1 20
1 21
1 22
1 23
1 24
1 25
1 26
1 27
1 28
1 29
1 30
1 31
1 32
1 33
1 34
1 35
1 36
1 37
1 38
1 39
1 40
1 41
1 42
1 43
1 44
1 45
1 46
1 47
1 48
1 49
1 50
1 51
1 52
1 53
1 54
1 55
1 56
1 57
1 58
1 59
1 60
1 61
1 62
1 63
1 64
1 65
1 66
1 67
1 68
1 69
1 70
1 71
1 72
1 73
1 74
1 75
1 76
1 77
1 78
1 79
1 80
1 81
1 82
1 83
1 84
1 85
1 86
1 87
1 88
1 89
1 90
1 91
1 92
1 93
1 94
1 95
1 96
1 97
1 98
1 99
1 100
1 101
1 102
1 103
1 104
1 105
1 106
1 107
1 108
1 109
1 110
1 111
1 112
1 113
1 114
1 115
1 116
1 117
1 118
1 119
1 120
1 121
1 122
1 123
1 124
1 125
1 126
1 127
1 128
1 129
1 130
1 131
1 132
1 133
1 134
1 135
1 136
1 137
1 138
1 139
1 140
1 141
1 142
1 143
1 144
1 145
1 146
1 147
1 148
1 149
1 150
1 151
1 152
1 153
1 154
1 155
1 156
1 157
1 158
1 159
1 160
1 161
1 162
1 163
1 164
1 165
1 166
1 167
1 168
1 169
1 170
1 171
1 172
1 173
1 174
1 175
1 176
1 177
1 178
1 179
1 180
1 181
1 182
1 183
1 184
1 185
1 186
1 187
1 188
1 189
1 190
1 191
1 192
1 193
1 194
1 195
1 196
1 197
1 198
1 199
1 200
1 201
1 202
1 203
1 204
1 205
1 206
1 207
1 208
1 209
1 210
1 211
1 212
1 213
1 214
1 215
1 216
1 217
1 218
1 219
1 220
1 221
1 222
1 223
1 224
1 225
1 226
1 227
1 228
1 229
1 230
1 231
1 232
1 233
1 234
1 235
1 236
1 237
1 238
1 239
1 240
1 241
1 242
1 243
1 244
1 245
1 246
1 247
1 248
1 249
1 250
1 251
1 252
1 253
1 254
1 255
1 256
1 257
1 258
1 259
1 260
1 261
1 262
1 263
1 264
1 265
1 266
1 267
1 268
1 269
1 270
1 271
1 272
1 273
1 274
1 275
1 276
1 277
1 278
1 279
1 280
1 281
1 282
1 283
1 284
1 285
1 286
1 287
1 288
1 289
1 290
1 291
1 292
1 293
1 294
1 295
1 296
1 297
1 298
1 299
1 300
1 301
1 302
1 303
1 304
1 305
1 306
1 307
1 308
1 309
1 310
1 311
1 312
1 313
1 314
1 315
1 316
1 317
1 318
1 319
1 320
1 321
1 322
1 323
1 324
1 325
1 326
1 327
1 328
1 329
1 330
1 331
1 332
1 333
1 334
1 335
1 336
1 337
1 338
1 339
1 340
1 341
1 342

CELL_TYPES 343
1
1
1
1
1
1
1
1
1
1
1
1
1
1
1
1
1
1
1
1
1
1
1
1
1
1
1
1
1
1
1
1
1
1
1
1
1
1
1
1
1
1
1
1
1
1
1
1
1
1
1
1
1
1
1
1
1
1
1
1
1
1
1
1
1
1
1
1
1
1
1
1
1
1
1
1
1
1
1
1
1
1
1
1
1
1
1
1
1
1
1
1
1
1
1
1
1
1
1
1
1
1
1
1
1
1
1
1
1
1
1
1
1
1
1
1
1
1
1
1
1
1
1
1
1
1
1
1
1
1
1
1
1
1
1
1
1
1
1
1
1
1
1
1
1
1
1
1
1
1
1
1
1
1
1
1
1
1
1
1
1
1
1
1
1
1
1
1
1
1
1
1
1
1
1
1
1
1
1
1
1
1
1
1
1
1
1
1
1
1
1
1
1
1
1
1
1
1
1
1
1
1
1
1
1
1
1
1
1
1
1
1
1
1
1
1
1
1
1
1
1
1
1
1
1
1
1
1
1
1
1
1
1
1
1
1
1
1
1
1
1
1
1
1
1
1
1
1
1
1
1
1
1
1
1
1
1
1
1
1
1
1
1
1
1
1
1
1
1
1
1
1
1
1
1
1
1
1
1
1
1
1
1
1
1
1
1
1
1
1
1
1
1
1
1
1
1
1
1
1
1
1
1
1
1
1
1
1
1
1
1
1
1
1
1
1
1
1
1
1
1
1
1
1
1
1
1
1
1
1
1
1
1
1
1
1
1
1
1
1
1
1
1

POINT_DATA 343
FIELD FieldData 3

ExternalForceID_(#) 1 343 int
0
1
2
3
4
5
6
7
8
9
10
11
12
13
14
15
16
17
18
19
20
21
22
23
24
25
26
27
28
29
30
31
32
33
34
35
36
37
38
39
40
41
42
43
44
45
46
47
48
49
50
51
52
53
54
55
56
57
58
59
60
61
62
63
64
65
66
67
68
69
70
71
72
73
74
75
76
77
78
79
80
81
82
83
84
85
86
87
88
89
90
91
92
93
94
95
96
97
98
99
100
101
102
103
104
105
106
107
108
109
110
111
112
113
114
115
116
117
118
119
120
121
122
123
124
125
126
127
128
129
130
131
132
133
134
135
136
137
138
139
140
141
142
143
144
145
146
147
148
149
150
151
152
153
154
155
156
157
158
159
160
161
162
163
164
165
166
167
168
169
170
171
172
173
174
175
176
177
178
179
180
181
182
183
184
185
186
187
188
189
190
191
192
193
194
195
196
197
198
199
200
201
202
203
204
205
206
207
208
209
210
211
212
213
214
215
216
217
218
219
220
221
222
223
224
225
226
227
228
229
230
231
232
233
234
235
236
237
238
239
240
241
242
243
244
245
246
247
248
249
250
251
252
253
254
255
256
257
258
259
260
261
262
263
264
265
266
267
268
269
270
271
272
273
274
275
276
277
278
279
280
281
282
283
284
285
286
287
288
289
290
291
292
293
294
295
296
297
298
299
300
301
302
303
304
305
306
307
308
309
310
311
312
313
314
315
316
317
318
319
320
321
322
323
324
325
326
327
328
329
330
331
332
333
334
335
336
337
338
339
340
341
342

ExternalForceType_(0/1/2/3/4) 1 343 int
0
0
0
0
0
0
0
0
0
0
0
0
0
0
0
0
0
0
0
0
0
0
0
0
0
0
0
0
0
0
0
0
0
0
0
0
0
0
0
0
0
0
0
0
0
0
0
0
0
0
0
0
0
0
0
0
0
0
0
0
0
0
0
0
0
0
0
0
0
0
0
0
0
0
0
0
0
0
0
0
0
0
0
0
0
0
0
0
0
0
0
0
0
0
0
0
0
0
0
0
0
0
0
0
0
0
0
0
0
0
0
0
0
0
0
0
0
0
0
0
0
0
0
0
0
0
0
0
0
0
0
0
0
0
0
0
0
0
0
0
0
0
0
0
0
0
0
0
0
0
0
0
0
0
0
0
0
0
0
0
0
0
0
0
0
0
0
0
0
0
0
0
0
0
0
0
0
0
0
0
0
0
0
0
0
0
0
0
0
0
0
0
0
0
0
0
0
0
0
0
0
0
0
0
0
0
0
0
0
0
0
0
0
0
0
0
0
0
0
0
0
0
0
0
0
0
0
0
0
0
0
0
0
0
0
0
0
0
0
0
0
0
0
0
0
0
0
0
0
0
0
0
0
0
0
0
0
0
0
0
0
0
0
0
0
0
0
0
0
0
0
0
0
0
0
0
0
0
0
0
0
0
0
0
0
0
0
0
0
0
0
0
0
0
0
0
0
0
0
0
0
0
0
0
0
0
0
0
0
0
0
0
0
0
0
0
0
0
0
0
0
0
0
0
0
0
0
0
0
0
0
0
0
0
0
0
0
0
0
0
0
0
0

ExternalForce_(N) 3 343 double
0 -3.09568e-05 0
0 -0.000138619 0
0 -2.16714e-05 0
0 -0.000168226 0
0 -8.26002e-05 0
0 -8.9203e-05 0
0 -9.74165e-05 0
0 -7.37906e-05 0
0 -6.68156e-05 0
0 -5.47617e-05 0
0 -3.04981e-05 0
0 -0.000105531 0
0 -4.77758e-05 0
0 -0.000161821 0
0 -2.96713e-05 0
0 -7.9067e-05 0
0 -6.57564e-05 0
0 -0.000106704 0
0 -4.11017e-05 0
0 -8.006e-05 0
0 -6.02474e-05 0
0 -0.000115662 0
0 -2.18875e-05 0
0 -4.17098e-05 0
0 -0.000107827 0
0 -7.27379e-05 0
0 -4.13856e-05 0
0 -3.85027e-05 0
0 -3.029e-05 0
0 -0.000128774 0
0 -7.57947e-05 0
0 -0.000162261 0
0 -0.000116775 0
0 -7.15802e-05 0
0 -3.74431e-05 0
0 -0.000108892 0
0 -3.74072e-05 0
0 -0.000136493 0
0 -6.25303e-05 0
0 -7.85756e-05 0
0 -7.52544e-05 0
0 -0.000116589 0
0 -0.000160874 0
0 -2.73339e-05 0
0 -8.7662e-05 0
0 -2.53184e-05 0
0 -7.42972e-05 0
0 -4.15199e-05 0
0 -0.000128792 0
0 -3.72945e-05 0
0 -2.72189e-05 0
0 -7.03157e-05 0
0 -0.000119003 0
0 -5.02041e-05 0
0 -8.04153e-05 0
0 -4.4939e-05 0
0 -2.74192e-05 0
0 -3.19929e-05 0
0 -4.04607e-05 0
0 -2.07889e-05 0
0 -3.28809e-05 0
0 -3.54797e-05 0
0 -0.000153858 0
0 -7.19739e-05 0
0 -8.09026e-05 0
0 -4.90862e-05 0
0 -2.77255e-05 0
0 -7.06591e-05 0
0 -3.20606e-05 0
0 -4.10794e-05 0
0 -1.98932e-05 0
0 -2.37551e-05 0
0 -3.0591e-05 0
0 -5.86107e-05 0
0 -5.75946e-05 0
0 -4.01595e-05 0
0 -5.35099e-05 0
0 -2.24477e-05 0
0 -4.41213e-05 0
0 -4.29866e-05 0
0 -4.42325e-05 0
0 -4.30889e-05 0
0 -4.19155e-05 0
0 -5.21923e-05 0
0 -1.5029e-05 0
0 -2.34331e-05 0
0 -1.9903e-05 0
0 -4.30461e-05 0
0 -3.11931e-05 0
0 -3.08326e-05 0
0 -4.52797e-05 0
0 -5.7648e-05 0
0 -8.02544e-05 0
0 -2.43623e-05 0
0 -0.000150893 0
0 -3.43039e-05 0
0 -7.21258e-05 0
0 -1.97489e-05 0
0 -2.00202e-05 0
0 -7.83017e-05 0
0 -4.32908e-05 0
0 -7.00326e-05 0
0 -1.17841e-05 0
0 -4.93779e-05 0
0 -1.58193e-05 0
0 -4.04762e-05 0
0 -8.57147e-05 0
0 -4.2953e-05 0
0 -7.82027e-05 0
0 -2.09499e-05 0
0 -3.31713e-05 0
0 -9.30599e-05 0
0 -7.26197e-05 0
0 -1.76801e-05 0
0 -2.06228e-05 0
0 -7.8371e-05 0
0 -1.84411e-05 0
0 -7.30662e-05 0
0 -4.11806e-05 0
0 -2.3265e-05 0
0 -4.23503e-05 0
0 -5.94919e-05 0
0 -4.22718e-05 0
0 -2.12723e-05 0
0 -1.86252e-05 0
0 -1.77849e-05 0
0 -3.82356e-05 0
0 -2.39658e-05 0
0 -1.62481e-05 0
0 -7.86148e-05 0
0 -1.61387e-05 0
0 -2.34763e-05 0
0 -2.95637e-05 0
0 -2.93742e-05 0
0 -1.33947e-05 0
0 -1.83735e-05 0
0 -2.05639e-05 0
0 -1.91062e-05 0
0 -1.84053e-05 0
0 -6.25793e-05 0
0 -4.49914e-05 0
0 -1.98914e-05 0
0 -1.58922e-05 0
0 -2.367e-05 0
0 -3.81266e-05 0
0 -4.36518e-05 0
0 -2.25472e-05 0
0 -0.000115119 0
0 -3.05886e-05 0
0 -1.32828e-05 0
0 -3.38507e-05 0
0 -1.78391e-05 0
0 -2.88237e-05 0
0 -1.34771e-05 0
0 -2.36876e-05 0
0 -2.06453e-05 0
0 -2.58912e-05 0
0 -2.10097e-05 0
0 -1.7602e-05 0
0 -3.13896e-05 0
0 -1.34386e-05 0
0 -2.38863e-05 0
0 -2.04203e-05 0
0 -1.33426e-05 0
0 -2.13076e-05 0
0 -1.86316e-05 0
0 -3.10974e-05 0
0 -2.56228e-05 0
0 -2.33161e-05 0
0 -1.57181e-05 0
0 -1.87061e-05 0
0 -5.38771e-05 0
0 -1.84308e-05 0
0 -3.08341e-05 0
0 -2.91652e-05 0
0 -1.16203e-05 0
0 -1.85667e-05 0
0 -2.00287e-05 0
0 -2.68375e-05 0
0 -2.37799e-05 0
0 -3.16945e-05 0
0 -3.13676e-05 0
0 -3.15313e-05 0
0 -1.90796e-05 0
0 -1.58134e-05 0
0 -1.83326e-05 0
0 -3.16308e-05 0
0 -2.07128e-05 0
0 -2.91276e-05 0
0 -6.03597e-05 0
0 -2.26581e-05 0
0 -2.35174e-05 0
0 -2.33506e-05 0
0 -2.59482e-05 0
0 -1.63393e-05 0
0 -1.78912e-05 0
0 -2.02658e-05 0
0 -5.62379e-05 0
0 -2.04507e-05 0
0 -2.14176e-05 0
0 -2.38895e-05 0
0 -3.05955e-05 0
0 -3.11287e-05 0
0 -2.01544e-05 0
0 -1.92198e-05 0
0 -2.99909e-05 0
0 -6.32085e-05 0
0 -2.04829e-05 0
0 -2.67435e-05 0
0 -2.11611e-05 0
0 -1.83262e-05 0
0 -1.96474e-05 0
0 -2.0699e-05 0
0 -2.83503e-05 0
0 -2.27807e-05 0
0 -2.35234e-05 0
0 -1.93874e-05 0
0 -6.29086e-05 0
0 -2.12117e-05 0
0 -3.22943e-05 0
0 -2.06229e-05 0
0 -2.61501e-05 0
0 -1.90721e-05 0
0 -2.86319e-05 0
0 -2.53212e-05 0
0 -2.07681e-05 0
0 -2.05553e-05 0
0 -1.88077e-05 0
0 -6.92631e-05 0
0 -2.20924e-05 0
0 -2.02457e-05 0
0 -6.16224e-05 0
0 -2.08117e-05 0
0 -2.85397e-05 0
0 -2.08875e-05 0
0 -6.32617e-05 0
0 -1.39008e-05 0
0 -2.0289e-05 0
0 -6.45558e-05 0
0 -2.47785e-05 0
0 -2.35177e-05 0
0 -7.28089e-06 0
0 -2.18143e-05 0
0 -6.93323e-06 0
0 -6.87344e-06 0
0 -8.76768e-06 0
0 -2.48719e-05 0
0 -2.22231e-05 0
0 -1.31068e-05 0
0 -7.69816e-06 0
0 -2.27889e-05 0
0 -5.95166e-06 0
0 -6.55579e-06 0
0 -6.71305e-06 0
0 -2.46468e-05 0
0 -2.27228e-05 0
0 -7.6878e-06 0
0 -6.67903e-06 0
0 -6.10861e-05 0
0 -6.6189e-06 0
0 -6.52665e-06 0
0 -6.87836e-06 0
0 -1.78856e-05 0
0 -1.87072e-05 0
0 -6.73674e-06 0
0 -6.91401e-06 0
0 -1.82903e-05 0
0 -2.2423e-05 0
0 -6.67521e-06 0
0 -7.02401e-06 0
0 -1.78908e-05 0
0 -5.89658e-06 0
0 -1.98938e-05 0
0 -7.3162e-06 0
0 -5.63509e-06 0
0 -1.76631e-05 0
0 -1.42638e-05 0
0 -2.22707e-05 0
0 -1.77204e-05 0
0 -2.11264e-05 0
0 -1.75686e-05 0
0 -1.76047e-05 0
0 -6.69346e-06 0
0 -2.20467e-05 0
0 -1.42479e-05 0
0 -1.76144e-05 0
0 -6.84615e-06 0
0 -6.12404e-06 0
0 -6.50125e-06 0
0 -1.41879e-05 0
0 -1.37476e-05 0
0 -2.11168e-05 0
0 -1.79377e-05 0
0 -1.37282e-05 0
0 -1.41198e-05 0
0 -2.15061e-05 0
0 -6.84475e-06 0
0 -1.74349e-05 0
0 -1.75758e-05 0
0 -6.41828e-06 0
0 -7.20025e-06 0
0 -2.30432e-05 0
0 -6.96894e-06 0
0 -6.44499e-06 0
0 -6.14414e-06 0
0 -2.14766e-05 0
0 -6.00855e-06 0
0 -5.92427e-06 0
0 -5.81567e-06 0
0 -5.02303e-06 0
0 -5.01945e-06 0
0 -4.85271e-06 0
0 -4.87573e-06 0
0 -4.8684e-06 0
0 -5.22951e-06 0
0 -4.84801e-06 0
0 -4.88396e-06 0
0 -4.77612e-06 0
0 -4.81304e-06 0
0 -4.85251e-06 0
0 -4.8555e-06 0
0 -4.82575e-06 0
0 -4.80313e-06 0
0 -4.86923e-06 0
0 -4.85781e-06 0
0 -4.73027e-06 0
0 -1.08748e-05 0
0 -5.22863e-06 0
0 -5.34413e-06 0
0 -5.26459e-06 0
0 -5.05624e-06 0
0 -4.92238e-06 0
0 -5.43253e-06 0
0 -5.43253e-06 0
0 -5.43253e-06 0
0 -5.43253e-06 0
0 -5.43253e-06 0
0 -5.43253e-06 0
0 -5.40321e-06 0
0 -5.40321e-06 0
0 -7.3113e-06 0
0 -6.98147e-06 0
0 -4.8949e-06 0

