# vtk DataFile Version 4.2
vtk output
ASCII
DATASET UNSTRUCTURED_GRID

POINTS 343 double
0.00112265 0.00419493 8.76218e-08
0.00217126 0.00498253 0.0021754
0 0.00419538 0.00112517
0.00193032 0.00195449 0.00194218
0.00516989 0.00240727 0.0050326
0.00517206 0.00383029 0.00639795
0.00762248 0.00477611 0.00499973
0.00622478 0.00485081 0.00369231
0.00683608 0.00328922 0.00691466
0.00499099 0.00499272 0.00500017
0.00418012 0.00111852 0.00999944
0.00528091 0.00208071 0.00790454
0.0041905 -6.97013e-06 0.00831751
0.00201228 0.0020025 0.00803329
0.00428567 0.00253312 0.00999948
0.00695561 0.00644722 0.00694763
0.00641329 0.00618277 0.00518364
0.00226068 0.00218466 0.00514619
0 0.00143586 0.00417514
0.00159465 0.00346615 0.00403707
0.00683784 0.00319461 0.00316209
0.00774595 0.00221396 0.00506473
0 0.00270918 0.00154168
0.00415935 0.00142894 4.01769e-07
0.00500872 0.00218827 0.00219832
0.00396302 0.00352685 0.00160335
0.00134557 -5.59913e-07 0.00406005
0.00418454 -7.26045e-06 0.0016885
0.00262658 0.00695167 2.19269e-07
0.00193837 0.00805275 0.00194495
0.00408792 0.00624814 0.00164536
0.00800124 0.00798654 0.00799812
0.00796399 0.00481625 0.00802314
0.00838753 0.00608028 0.0059488
0.00999763 0.00882652 0.00419297
0.00757604 0.00763617 0.00496441
0.00856547 0.00998084 0.00416735
0.00797614 0.00797171 0.00201668
0.00353599 0.00303664 0.00695972
0.00443705 0.00366205 0.00832434
0.0038927 0.00160082 0.00596923
0.00500464 0.00766844 0.00767707
0.0019894 0.00800788 0.0079897
0.00282697 0.0099974 0.00712729
0.00391618 0.00839962 0.00595805
0 0.00695361 0.00262895
0.00164652 0.00623926 0.00408793
0 0.0040177 0.00850214
0.00231485 0.00498572 0.00766159
0.00143311 0.00417448 0.00999997
0.00717322 0.00711847 0.00999854
0.00611722 0.00597098 0.00841788
0.00205185 0.00794143 0.0047419
0.00304353 0.0069429 0.00646785
0.00158686 0.00607835 0.00592605
0.00998769 0.00578464 0.00831572
0 0.00718191 0.00711644
0.00158475 0.00577345 6.71197e-08
0 0.00577432 0.00158701
0.00999235 0.00715835 0.00711514
0.00286698 0.00334934 0.00999982
0.00997094 0.00141036 0.00417503
0.00803752 0.00194383 0.00197961
0.00838968 0.0035029 0.00399897
0.00372633 0.00164829 0.00412851
0.00150921 0.00999969 0.00581506
0.00281001 -3.35267e-06 0.00712782
0.00610923 0.00417175 0.00837636
0.00999193 0.00725042 0.00419527
0.0085299 -2.08788e-05 0.00416813
0.0033423 0.00286981 2.77642e-07
0.0027 0.00153897 0.00999984
0.00281913 -3.68951e-06 0.00283214
0.00479747 0.0051942 0.00755454
0.00315846 0.00314634 0.0031675
0 0.00849157 0.00581511
0.00486516 0.00366974 0.00378649
0.00153726 0.00270866 5.82479e-08
0.00579818 0.0083162 0.00999882
0.00598322 0.00998969 0.00850538
0.00421307 0.0099943 0.00831758
0.00401682 0.00849845 0.0099992
0.00999673 0.0084678 0.00581408
0.00314751 0.00683356 0.00315101
0 0.00748929 0.00137438
0.00137351 0.00748899 2.64256e-08
0 0.00287343 0.00335182
0 0.00580816 0.00831736
0 0.00429792 0.00253898
0.0025339 0.00429595 2.34368e-07
0.00143367 0.00581917 0.00999997
0.0051749 0.00646874 0.0064004
0.00360285 0.00650939 0.00823402
0.00693199 0.00261363 0.00999878
0.00799961 0.00194063 0.0080348
0.00694348 -1.55403e-05 0.00308233
0.00600169 0.00165306 0.00361311
0.00997584 0.00284865 0.00335189
0 0.00140616 0.00256446
0.00637232 0.00821705 0.00642078
0.00579809 0.00142396 7.46392e-07
0.00602285 0.00354144 0.00160362
0.00315668 0.00999662 0.00582527
0.00856051 0.009981 0.00583251
0.00255461 0.00140318 2.56453e-07
0.00595166 -1.23595e-05 0.00149493
0.00627977 0.00827708 0.00361737
0.00852503 -2.07227e-05 0.00583301
0.00618715 0.00166118 0.00636518
0.0014022 0.00256406 0.01
0.00711119 0.00716825 3.58368e-07
0.00516506 0.00768249 0.00216912
0.00593651 0.00608407 0.00160219
0 0.00686719 0.00578184
0.00997043 0.00138049 0.0025648
0.00177223 0.00360989 0.0064079
0.009996 0.00846285 0.00262352
0.00840292 0.00617124 0.00413266
0.00598236 0.00998908 0.00149401
0.00694288 -1.52967e-05 0.00692617
0.00997137 0.00141016 0.00581903
0.00837936 0.00355482 0.00606043
0.00150203 -7.19902e-07 0.00581522
0 0.0013659 0.00748679
0.00136379 -6.10521e-07 0.00752893
0.00999086 0.00684357 0.00578089
0.00581511 0.00848157 2.92342e-07
0 0.0075208 0.00859127
0.00136495 0.00748642 0.00999991
0.00423077 0.00820046 0.00362839
0.00859374 0.00998089 0.00751099
0.00999773 0.00860659 0.00752485
0.0057551 0.00157621 0.00999902
0.00724479 0.00417408 0.00999866
0 0.0057735 0.00666667
0.00137013 0.00999964 0.00752894
0 0.00863025 0.00752641
0.00855617 -2.12483e-05 0.00250789
0.00999041 0.00692971 0.00262886
0.00845019 0.00632377 0.00216308
0.00849884 0.00580578 0.00999832
0.00746571 0.00135785 0.00999857
0.00855816 -2.09196e-05 0.00751112
0.00997152 0.00134062 0.00748552
0 0.00143551 0.00581971
0.00595286 -1.19717e-05 0.00850527
0.00419431 -7.30761e-06 0.00340019
0.00792042 0.00469101 0.00203478
0.00998074 0.00427365 0.00253911
0.00423076 0.00999409 0.00666637
0.00283637 0.00999744 0.00283203
0.00130727 -6.04359e-07 0.00241833
0 0.00727418 0.00419576
0.00998709 0.00574992 0.0066655
0.00697642 0.00998606 0.00308154
0.00750655 0.00862203 0.00999845
0 0.00574334 0.00336387
0 0.0043297 0.00416652
0.00686092 0.00577193 0.00999876
0.00997725 0.00299774 0.00691418
0.00420678 -7.1344e-06 0.00666667
0.00247986 0.00999779 0.00861146
0.00746103 0.00134886 7.93346e-07
0.00576929 0.0066579 0.00999887
0.00999399 0.00749733 0.00858945
0.00860367 0.0075352 0.00999823
0.00689608 0.00300815 7.9675e-07
0.00335922 0.00574048 3.71456e-07
0.00752543 0.00861476 2.34725e-07
0.00751824 0.00998398 0.00138741
0.00577705 0.00685789 3.61191e-07
0.00696782 0.00635796 0.00303349
0.00748429 -1.76899e-05 0.00138837
0.00287993 0.00499714 0.00999974
0.00432475 0.00582874 0.00999929
0.00432089 0.00416163 0.00999936
0.00751965 0.00998452 0.00861479
0.0024652 -2.84251e-06 0.00861163
0.00998611 0.00571949 0.00336374
0 0.00302218 0.00691532
0.0099812 0.0039938 0.0085005
0.00848349 0.00399846 6.68172e-07
0.00997485 0.00268408 0.00154217
0 0.00244495 0.00857025
0.00244543 0.00856824 0.00999962
0.00748582 -1.72759e-05 0.00861466
0.00846566 0.00260472 0.00999832
0.00883466 0.00417413 0.00999823
0.00567431 0.00999029 0.00583301
0.00518439 0.0075761 0.00503229
0.00564641 0.00999024 0.0042151
0.00697574 0.00998637 0.00692587
0.00302011 0.00691335 0.00999955
0.00415769 0.0043248 5.37791e-07
0.00282205 -3.82869e-06 0.00440485
0.00313828 -4.26774e-06 0.00582564
0.00998008 0.00417087 0.0011256
0.00363789 0.00833336 0.00158846
0.00998126 0.00430556 0.00416626
0.00665713 0.00576138 5.9276e-07
0.00859188 0.00998053 0.00250693
0 0.00848692 0.00262374
0.00135202 0.00999966 0.00405991
0 0.00885053 0.00419359
0.00419483 0.0088446 3.00508e-07
0.00420826 0.0099939 0.00168788
0.00499013 0.00478468 0.00237916
0.00720486 0.00450728 7.03017e-07
0.00561742 -1.13523e-05 0.00421582
0.00564538 -1.12988e-05 0.0058334
0.00131357 0.00999968 0.00241808
0.00854591 0.0024248 7.61684e-07
0.0099827 0.0044979 0.00721829
0.00711872 0.00998578 0.00499983
0.00572953 0.0033546 0.00999905
0.00244638 -2.97626e-06 0.0013568
0.00997557 0.00242023 0.00856866
0.00239173 0.00478981 0.005
0.00582051 0.00432033 7.17346e-07
0.00830545 0.00579008 4.56576e-07
0.00548334 0.00999099 0.00721998
0.00998164 0.00430613 0.00583252
0.00540654 0.00999081 0.00277559
0.00708547 -1.58314e-05 0.00500046
0.00283878 0.00999745 0.00440444
0 0.00452174 0.00721958
0.00451911 0.0072147 0.00999917
0.00545491 -1.05734e-05 0.00721995
0.00359805 0.00507056 0.00359668
0.00425558 0.00999403 0.0050081
0.00423097 -7.28716e-06 0.00500868
0.00366606 0.00521354 0.00617462
0 0.005744 0.00499998
0 0.00433013 0.00583333
0.0049929 0.00573737 5.77664e-07
0.00498016 0.00633256 0.00355394
0.00537803 -1.0725e-05 0.00277641
0.00998654 0.00572031 0.00499934
0.00368771 0.00640447 0.00484398
0.005735 0.00499155 0.009999
0.00998584 0.00575027 0.00158724
0 0.00666667 0
0.00858513 0.00750186 2.1452e-07
0.00331739 -5.63168e-06 8.75692e-07
0 0.01 0.00666667
0.00500475 0.00999205 0.00999921
0 0.00288419 0.00499914
0.0099921 0.00746526 0.00137451
0.00998886 0.00664256 1.79859e-07
0 0.005 0.01
0.00498416 0.00287621 5.85261e-07
0 0.005 0
0.00996561 -2.62179e-05 0.00333359
0.0100025 0.00997575 0.00666526
0.00419328 0.00726917 3.63796e-07
0.00997623 0.0028596 0.00499869
0.00497744 -1.00758e-05 1.02534e-06
0 0 0.00666667
0.00379049 0.00361281 0.00522641
0.0049789 -9.63288e-06 0.00999889
0.00996644 -2.59848e-05 0.0066657
0 0 0.005
0.00878268 0.00997967 0.00122006
0.00999678 0.00875556 0.00122008
0.009966 -2.60582e-05 0.00499968
0.00998282 0.00497556 3.90405e-07
0.00121576 0.00121929 5.78894e-09
0 0.00122008 0.00122008
0 0.00333333 0.01
0 0.00666667 0.01
0.00877809 0.00875989 5.98039e-08
0.0100017 0.00997543 0.00333277
0.00421876 0.00999399 0.00339962
0.00999124 0.0066433 0.00999796
0 0.00333333 0
0 0.00122008 0.00877992
0.00121499 -7.68091e-07 0.00877974
0.00121607 0.00121954 0.0100001
0.00878436 0.00998018 0.00877843
0.0012198 0.00877946 0.00999991
0 0.00877992 0.00877992
0.00999867 0.0087562 0.00877807
0.00667075 0.00998667 -2.89985e-08
0.00996941 0.00119415 0.00122075
0.00122075 0.00999949 0.00878011
0.00878042 0.00876057 0.00999822
0.00998517 0.00497636 0.00999799
0 0 0.00333333
0.00663838 -1.50009e-05 1.1662e-06
0.00874683 -2.21233e-05 0.0012211
0.00120623 -7.8807e-07 0.00121208
0 0.00877992 0.00122008
0.00121997 0.00877942 1.05308e-07
0.00121225 0.00999953 0.00121146
0.00997126 0.00119466 0.00877816
0.00875321 0.00119893 0.00999817
0.00664039 -1.45729e-05 0.00999835
0.00875088 0.00119841 8.58008e-07
0.00874866 -2.16868e-05 0.00877823
0.00997684 0.00330841 5.62479e-07
0.003337 0.00999578 0.00999977
0.00246158 0.00999796 0.00135641
0.00667236 0.0099873 0.00999888
0.00997914 0.00330921 0.00999798
0 0.01 0.005
0.00262402 0.00848472 2.33887e-07
0.010002 0.0099756 0.00499908
0 0.01 0.00333333
0 0.00166667 0
0.00996521 -2.64392e-05 0.0016674
0 0.00166667 0.01
0 0.00833333 0
0.00999498 0.00830898 -1.80486e-08
0.00996686 -2.60484e-05 0.00833159
0.0100013 0.00997524 0.00166647
0.0100029 0.00997577 0.0083316
0.00166848 0.0099986 0.00999995
0 0.01 0.00833333
0.00833638 0.00998107 -4.86685e-08
0.00830101 -2.08008e-05 1.04791e-06
0.00830331 -2.03565e-05 0.00999806
0.00833839 0.0099816 0.00999839
0 0 0.00833333
0.00999737 0.00830972 0.00999792
0.00165837 -1.95329e-06 2.73711e-07
0 0 0.00166667
0.00333719 0.00999593 1.75164e-07
0.00997316 0.00164137 0.00999793
0.00997081 0.00164081 6.82055e-07
0.00165911 -1.61817e-06 0.01
0.00166849 0.00999887 1.03879e-07
0 0.01 0.00166667
0.0100034 0.00997579 0.00999799
0 0 0.01
0.010001 0.00997507 -2.52529e-07
0.00996723 -2.61539e-05 0.00999769
0 0.01 0.01
0.00996484 -2.66217e-05 9.01753e-07
0 0.01 0
0 0 0
0.00500425 0.00999159 1.03347e-07
0.00331844 -5.08979e-06 0.00999932
0 0.00833333 0.01

CELLS 343 686
1 0
1 1
1 2
1 3
1 4
1 5
1 6
1 7
1 8
1 9
1 10
1 11
1 12
1 13
1 14
1 15
1 16
1 17
1 18
1 19
1 20
1 21
1 22
1 23
1 24
1 25
1 26
1 27
1 28
1 29
1 30
1 31
1 32
1 33
1 34
1 35
1 36
1 37
1 38
1 39
1 40
1 41
1 42
1 43
1 44
1 45
1 46
1 47
1 48
1 49
1 50
1 51
1 52
1 53
1 54
1 55
1 56
1 57
1 58
1 59
1 60
1 61
1 62
1 63
1 64
1 65
1 66
1 67
1 68
1 69
1 70
1 71
1 72
1 73
1 74
1 75
1 76
1 77
1 78
1 79
1 80
1 81
1 82
1 83
1 84
1 85
1 86
1 87
1 88
1 89
1 90
1 91
1 92
1 93
1 94
1 95
1 96
1 97
1 98
1 99
1 100
1 101
1 102
1 103
1 104
1 105
1 106
1 107
1 108
1 109
1 110
1 111
1 112
1 113
1 114
1 115
1 116
1 117
1 118
1 119
1 120
1 121
1 122
1 123
1 124
1 125
1 126
1 127
1 128
1 129
1 130
1 131
1 132
1 133
1 134
1 135
1 136
1 137
1 138
1 139
1 140
1 141
1 142
1 143
1 144
1 145
1 146
1 147
1 148
1 149
1 150
1 151
1 152
1 153
1 154
1 155
1 156
1 157
1 158
1 159
1 160
1 161
1 162
1 163
1 164
1 165
1 166
1 167
1 168
1 169
1 170
1 171
1 172
1 173
1 174
1 175
1 176
1 177
1 178
1 179
1 180
1 181
1 182
1 183
1 184
1 185
1 186
1 187
1 188
1 189
1 190
1 191
1 192
1 193
1 194
1 195
1 196
1 197
1 198
1 199
1 200
1 201
1 202
1 203
1 204
1 205
1 206
1 207
1 208
1 209
1 210
1 211
1 212
1 213
1 214
1 215
1 216
1 217
1 218
1 219
1 220
1 221
1 222
1 223
1 224
1 225
1 226
1 227
1 228
1 229
1 230
1 231
1 232
1 233
1 234
1 235
1 236
1 237
1 238
1 239
1 240
1 241
1 242
1 243
1 244
1 245
1 246
1 247
1 248
1 249
1 250
1 251
1 252
1 253
1 254
1 255
1 256
1 257
1 258
1 259
1 260
1 261
1 262
1 263
1 264
1 265
1 266
1 267
1 268
1 269
1 270
1 271
1 272
1 273
1 274
1 275
1 276
1 277
1 278
1 279
1 280
1 281
1 282
1 283
1 284
1 285
1 286
1 287
1 288
1 289
1 290
1 291
1 292
1 293
1 294
1 295
1 296
1 297
1 298
1 299
1 300
1 301
1 302
1 303
1 304
1 305
1 306
1 307
1 308
1 309
1 310
1 311
1 312
1 313
1 314
1 315
1 316
1 317
1 318
1 319
1 320
1 321
1 322
1 323
1 324
1 325
1 326
1 327
1 328
1 329
1 330
1 331
1 332
1 333
1 334
1 335
1 336
1 337
1 338
1 339
1 340
1 341
1 342

CELL_TYPES 343
1
1
1
1
1
1
1
1
1
1
1
1
1
1
1
1
1
1
1
1
1
1
1
1
1
1
1
1
1
1
1
1
1
1
1
1
1
1
1
1
1
1
1
1
1
1
1
1
1
1
1
1
1
1
1
1
1
1
1
1
1
1
1
1
1
1
1
1
1
1
1
1
1
1
1
1
1
1
1
1
1
1
1
1
1
1
1
1
1
1
1
1
1
1
1
1
1
1
1
1
1
1
1
1
1
1
1
1
1
1
1
1
1
1
1
1
1
1
1
1
1
1
1
1
1
1
1
1
1
1
1
1
1
1
1
1
1
1
1
1
1
1
1
1
1
1
1
1
1
1
1
1
1
1
1
1
1
1
1
1
1
1
1
1
1
1
1
1
1
1
1
1
1
1
1
1
1
1
1
1
1
1
1
1
1
1
1
1
1
1
1
1
1
1
1
1
1
1
1
1
1
1
1
1
1
1
1
1
1
1
1
1
1
1
1
1
1
1
1
1
1
1
1
1
1
1
1
1
1
1
1
1
1
1
1
1
1
1
1
1
1
1
1
1
1
1
1
1
1
1
1
1
1
1
1
1
1
1
1
1
1
1
1
1
1
1
1
1
1
1
1
1
1
1
1
1
1
1
1
1
1
1
1
1
1
1
1
1
1
1
1
1
1
1
1
1
1
1
1
1
1
1
1
1
1
1
1
1
1
1
1
1
1
1
1
1
1
1
1
1
1
1
1
1
1
1
1
1
1
1
1
1
1
1
1
1
1
1
1
1
1
1
1

POINT_DATA 343
FIELD FieldData 3

ExternalForceID_(#) 1 343 int
0
1
2
3
4
5
6
7
8
9
10
11
12
13
14
15
16
17
18
19
20
21
22
23
24
25
26
27
28
29
30
31
32
33
34
35
36
37
38
39
40
41
42
43
44
45
46
47
48
49
50
51
52
53
54
55
56
57
58
59
60
61
62
63
64
65
66
67
68
69
70
71
72
73
74
75
76
77
78
79
80
81
82
83
84
85
86
87
88
89
90
91
92
93
94
95
96
97
98
99
100
101
102
103
104
105
106
107
108
109
110
111
112
113
114
115
116
117
118
119
120
121
122
123
124
125
126
127
128
129
130
131
132
133
134
135
136
137
138
139
140
141
142
143
144
145
146
147
148
149
150
151
152
153
154
155
156
157
158
159
160
161
162
163
164
165
166
167
168
169
170
171
172
173
174
175
176
177
178
179
180
181
182
183
184
185
186
187
188
189
190
191
192
193
194
195
196
197
198
199
200
201
202
203
204
205
206
207
208
209
210
211
212
213
214
215
216
217
218
219
220
221
222
223
224
225
226
227
228
229
230
231
232
233
234
235
236
237
238
239
240
241
242
243
244
245
246
247
248
249
250
251
252
253
254
255
256
257
258
259
260
261
262
263
264
265
266
267
268
269
270
271
272
273
274
275
276
277
278
279
280
281
282
283
284
285
286
287
288
289
290
291
292
293
294
295
296
297
298
299
300
301
302
303
304
305
306
307
308
309
310
311
312
313
314
315
316
317
318
319
320
321
322
323
324
325
326
327
328
329
330
331
332
333
334
335
336
337
338
339
340
341
342

ExternalForceType_(0/1/2/3/4) 1 343 int
0
0
0
0
0
0
0
0
0
0
0
0
0
0
0
0
0
0
0
0
0
0
0
0
0
0
0
0
0
0
0
0
0
0
0
0
0
0
0
0
0
0
0
0
0
0
0
0
0
0
0
0
0
0
0
0
0
0
0
0
0
0
0
0
0
0
0
0
0
0
0
0
0
0
0
0
0
0
0
0
0
0
0
0
0
0
0
0
0
0
0
0
0
0
0
0
0
0
0
0
0
0
0
0
0
0
0
0
0
0
0
0
0
0
0
0
0
0
0
0
0
0
0
0
0
0
0
0
0
0
0
0
0
0
0
0
0
0
0
0
0
0
0
0
0
0
0
0
0
0
0
0
0
0
0
0
0
0
0
0
0
0
0
0
0
0
0
0
0
0
0
0
0
0
0
0
0
0
0
0
0
0
0
0
0
0
0
0
0
0
0
0
0
0
0
0
0
0
0
0
0
0
0
0
0
0
0
0
0
0
0
0
0
0
0
0
0
0
0
0
0
0
0
0
0
0
0
0
0
0
0
0
0
0
0
0
0
0
0
0
0
0
0
0
0
0
0
0
0
0
0
0
0
0
0
0
0
0
0
0
0
0
0
0
0
0
0
0
0
0
0
0
0
0
0
0
0
0
0
0
0
0
0
0
0
0
0
0
0
0
0
0
0
0
0
0
0
0
0
0
0
0
0
0
0
0
0
0
0
0
0
0
0
0
0
0
0
0
0
0
0
0
0
0
0
0
0
0
0
0
0
0
0
0
0
0
0
0
0
0
0
0
0

ExternalForce_(N) 3 343 double
0 -3.09568e-05 0
0 -0.000138619 0
0 -2.16714e-05 0
0 -0.000168226 0
0 -8.26002e-05 0
0 -8.9203e-05 0
0 -9.74165e-05 0
0 -7.37906e-05 0
0 -6.68156e-05 0
0 -5.47617e-05 0
0 -3.04981e-05 0
0 -0.000105531 0
0 -4.77758e-05 0
0 -0.000161821 0
0 -2.96713e-05 0
0 -7.9067e-05 0
0 -6.57564e-05 0
0 -0.000106704 0
0 -4.11017e-05 0
0 -8.006e-05 0
0 -6.02474e-05 0
0 -0.000115662 0
0 -2.18875e-05 0
0 -4.17098e-05 0
0 -0.000107827 0
0 -7.27379e-05 0
0 -4.13856e-05 0
0 -3.85027e-05 0
0 -3.029e-05 0
0 -0.000128774 0
0 -7.57947e-05 0
0 -0.000162261 0
0 -0.000116775 0
0 -7.15802e-05 0
0 -3.74431e-05 0
0 -0.000108892 0
0 -3.74072e-05 0
0 -0.000136493 0
0 -6.25303e-05 0
0 -7.85756e-05 0
0 -7.52544e-05 0
0 -0.000116589 0
0 -0.000160874 0
0 -2.73339e-05 0
0 -8.7662e-05 0
0 -2.53184e-05 0
0 -7.42972e-05 0
0 -4.15199e-05 0
0 -0.000128792 0
0 -3.72945e-05 0
0 -2.72189e-05 0
0 -7.03157e-05 0
0 -0.000119003 0
0 -5.02041e-05 0
0 -8.04153e-05 0
0 -4.4939e-05 0
0 -2.74192e-05 0
0 -3.19929e-05 0
0 -4.04607e-05 0
0 -2.07889e-05 0
0 -3.28809e-05 0
0 -3.54797e-05 0
0 -0.000153858 0
0 -7.19739e-05 0
0 -8.09026e-05 0
0 -4.90862e-05 0
0 -2.77255e-05 0
0 -7.06591e-05 0
0 -3.20606e-05 0
0 -4.10794e-05 0
0 -1.98932e-05 0
0 -2.37551e-05 0
0 -3.0591e-05 0
0 -5.86107e-05 0
0 -5.75946e-05 0
0 -4.01595e-05 0
0 -5.35099e-05 0
0 -2.24477e-05 0
0 -4.41213e-05 0
0 -4.29866e-05 0
0 -4.42325e-05 0
0 -4.30889e-05 0
0 -4.19155e-05 0
0 -5.21923e-05 0
0 -1.5029e-05 0
0 -2.34331e-05 0
0 -1.9903e-05 0
0 -4.30461e-05 0
0 -3.11931e-05 0
0 -3.08326e-05 0
0 -4.52797e-05 0
0 -5.7648e-05 0
0 -8.02544e-05 0
0 -2.43623e-05 0
0 -0.000150893 0
0 -3.43039e-05 0
0 -7.21258e-05 0
0 -1.97489e-05 0
0 -2.00202e-05 0
0 -7.83017e-05 0
0 -4.32908e-05 0
0 -7.00326e-05 0
0 -1.17841e-05 0
0 -4.93779e-05 0
0 -1.58193e-05 0
0 -4.04762e-05 0
0 -8.57147e-05 0
0 -4.2953e-05 0
0 -7.82027e-05 0
0 -2.09499e-05 0
0 -3.31713e-05 0
0 -9.30599e-05 0
0 -7.26197e-05 0
0 -1.76801e-05 0
0 -2.06228e-05 0
0 -7.8371e-05 0
0 -1.84411e-05 0
0 -7.30662e-05 0
0 -4.11806e-05 0
0 -2.3265e-05 0
0 -4.23503e-05 0
0 -5.94919e-05 0
0 -4.22718e-05 0
0 -2.12723e-05 0
0 -1.86252e-05 0
0 -1.77849e-05 0
0 -3.82356e-05 0
0 -2.39658e-05 0
0 -1.62481e-05 0
0 -7.86148e-05 0
0 -1.61387e-05 0
0 -2.34763e-05 0
0 -2.95637e-05 0
0 -2.93742e-05 0
0 -1.33947e-05 0
0 -1.83735e-05 0
0 -2.05639e-05 0
0 -1.91062e-05 0
0 -1.84053e-05 0
0 -6.25793e-05 0
0 -4.49914e-05 0
0 -1.98914e-05 0
0 -1.58922e-05 0
0 -2.367e-05 0
0 -3.81266e-05 0
0 -4.36518e-05 0
0 -2.25472e-05 0
0 -0.000115119 0
0 -3.05886e-05 0
0 -1.32828e-05 0
0 -3.38507e-05 0
0 -1.78391e-05 0
0 -2.88237e-05 0
0 -1.34771e-05 0
0 -2.36876e-05 0
0 -2.06453e-05 0
0 -2.58912e-05 0
0 -2.10097e-05 0
0 -1.7602e-05 0
0 -3.13896e-05 0
0 -1.34386e-05 0
0 -2.38863e-05 0
0 -2.04203e-05 0
0 -1.33426e-05 0
0 -2.13076e-05 0
0 -1.86316e-05 0
0 -3.10974e-05 0
0 -2.56228e-05 0
0 -2.33161e-05 0
0 -1.57181e-05 0
0 -1.87061e-05 0
0 -5.38771e-05 0
0 -1.84308e-05 0
0 -3.08341e-05 0
0 -2.91652e-05 0
0 -1.16203e-05 0
0 -1.85667e-05 0
0 -2.00287e-05 0
0 -2.68375e-05 0
0 -2.37799e-05 0
0 -3.16945e-05 0
0 -3.13676e-05 0
0 -3.15313e-05 0
0 -1.90796e-05 0
0 -1.58134e-05 0
0 -1.83326e-05 0
0 -3.16308e-05 0
0 -2.07128e-05 0
0 -2.91276e-05 0
0 -6.03597e-05 0
0 -2.26581e-05 0
0 -2.35174e-05 0
0 -2.33506e-05 0
0 -2.59482e-05 0
0 -1.63393e-05 0
0 -1.78912e-05 0
0 -2.02658e-05 0
0 -5.62379e-05 0
0 -2.04507e-05 0
0 -2.14176e-05 0
0 -2.38895e-05 0
0 -3.05955e-05 0
0 -3.11287e-05 0
0 -2.01544e-05 0
0 -1.92198e-05 0
0 -2.99909e-05 0
0 -6.32085e-05 0
0 -2.04829e-05 0
0 -2.67435e-05 0
0 -2.11611e-05 0
0 -1.83262e-05 0
0 -1.96474e-05 0
0 -2.0699e-05 0
0 -2.83503e-05 0
0 -2.27807e-05 0
0 -2.35234e-05 0
0 -1.93874e-05 0
0 -6.29086e-05 0
0 -2.12117e-05 0
0 -3.22943e-05 0
0 -2.06229e-05 0
0 -2.61501e-05 0
0 -1.90721e-05 0
0 -2.86319e-05 0
0 -2.53212e-05 0
0 -2.07681e-05 0
0 -2.05553e-05 0
0 -1.88077e-05 0
0 -6.92631e-05 0
0 -2.20924e-05 0
0 -2.02457e-05 0
0 -6.16224e-05 0
0 -2.08117e-05 0
0 -2.85397e-05 0
0 -2.08875e-05 0
0 -6.32617e-05 0
0 -1.39008e-05 0
0 -2.0289e-05 0
0 -6.45558e-05 0
0 -2.47785e-05 0
0 -2.35177e-05 0
0 -7.28089e-06 0
0 -2.18143e-05 0
0 -6.93323e-06 0
0 -6.87344e-06 0
0 -8.76768e-06 0
0 -2.48719e-05 0
0 -2.22231e-05 0
0 -1.31068e-05 0
0 -7.69816e-06 0
0 -2.27889e-05 0
0 -5.95166e-06 0
0 -6.55579e-06 0
0 -6.71305e-06 0
0 -2.46468e-05 0
0 -2.27228e-05 0
0 -7.6878e-06 0
0 -6.67903e-06 0
0 -6.10861e-05 0
0 -6.6189e-06 0
0 -6.52665e-06 0
0 -6.87836e-06 0
0 -1.78856e-05 0
0 -1.87072e-05 0
0 -6.73674e-06 0
0 -6.91401e-06 0
0 -1.82903e-05 0
0 -2.2423e-05 0
0 -6.67521e-06 0
0 -7.02401e-06 0
0 -1.78908e-05 0
0 -5.89658e-06 0
0 -1.98938e-05 0
0 -7.3162e-06 0
0 -5.63509e-06 0
0 -1.76631e-05 0
0 -1.42638e-05 0
0 -2.22707e-05 0
0 -1.77204e-05 0
0 -2.11264e-05 0
0 -1.75686e-05 0
0 -1.76047e-05 0
0 -6.69346e-06 0
0 -2.20467e-05 0
0 -1.42479e-05 0
0 -1.76144e-05 0
0 -6.84615e-06 0
0 -6.12404e-06 0
0 -6.50125e-06 0
0 -1.41879e-05 0
0 -1.37476e-05 0
0 -2.11168e-05 0
0 -1.79377e-05 0
0 -1.37282e-05 0
0 -1.41198e-05 0
0 -2.15061e-05 0
0 -6.84475e-06 0
0 -1.74349e-05 0
0 -1.75758e-05 0
0 -6.41828e-06 0
0 -7.20025e-06 0
0 -2.30432e-05 0
0 -6.96894e-06 0
0 -6.44499e-06 0
0 -6.14414e-06 0
0 -2.14766e-05 0
0 -6.00855e-06 0
0 -5.92427e-06 0
0 -5.81567e-06 0
0 -5.02303e-06 0
0 -5.01945e-06 0
0 -4.85271e-06 0
0 -4.87573e-06 0
0 -4.8684e-06 0
0 -5.22951e-06 0
0 -4.84801e-06 0
0 -4.88396e-06 0
0 -4.77612e-06 0
0 -4.81304e-06 0
0 -4.85251e-06 0
0 -4.8555e-06 0
0 -4.82575e-06 0
0 -4.80313e-06 0
0 -4.86923e-06 0
0 -4.85781e-06 0
0 -4.73027e-06 0
0 -1.08748e-05 0
0 -5.22863e-06 0
0 -5.34413e-06 0
0 -5.26459e-06 0
0 -5.05624e-06 0
0 -4.92238e-06 0
0 -5.43253e-06 0
0 -5.43253e-06 0
0 -5.43253e-06 0
0 -5.43253e-06 0
0 -5.43253e-06 0
0 -5.43253e-06 0
0 -5.40321e-06 0
0 -5.40321e-06 0
0 -7.3113e-06 0
0 -6.98147e-06 0
0 -4.8949e-06 0

