# vtk DataFile Version 4.2
vtk output
ASCII
DATASET UNSTRUCTURED_GRID

POINTS 343 double
0.00112229 0.00419495 7.61657e-08
0.00217074 0.00498262 0.00217526
0 0.00419538 0.00112517
0.00193009 0.00195456 0.00194208
0.00517054 0.00240787 0.00503141
0.00517319 0.00383088 0.00639662
0.00762271 0.0047773 0.00499688
0.00622407 0.00485163 0.00369051
0.00683795 0.00329024 0.00691222
0.00499107 0.00499325 0.00499905
0.00418303 0.00111898 0.00999826
0.00528327 0.00208139 0.00790294
0.00419285 -6.51191e-06 0.00831642
0.00201299 0.00200258 0.00803314
0.00428841 0.00253359 0.00999825
0.00695675 0.00644824 0.0069451
0.00641323 0.00618365 0.00518165
0.00226093 0.00218476 0.00514599
0 0.00143586 0.00417514
0.00159461 0.00346618 0.00403701
0.00683718 0.0031956 0.00315991
0.00774692 0.00221523 0.00506178
0 0.00270918 0.00154168
0.00415793 0.00142936 -4.45865e-07
0.00500795 0.00218887 0.00219705
0.00396193 0.0035272 0.00160251
0.00134573 -5.64357e-07 0.00405997
0.00418408 -6.92354e-06 0.00168759
0.00262497 0.00695179 -8.48558e-08
0.00193767 0.00805278 0.00194482
0.00408636 0.00624844 0.00164449
0.00800284 0.0079879 0.00799469
0.0079665 0.00481756 0.00801975
0.00838814 0.0060817 0.0059453
0.00999626 0.00882839 0.00418837
0.00757544 0.00763738 0.00496161
0.00856367 0.00998226 0.00416383
0.00797331 0.00797301 0.00201364
0.0035369 0.00303692 0.00695912
0.00443889 0.00366249 0.00832313
0.00389366 0.00160118 0.0059686
0.00500552 0.00766903 0.00767563
0.00198968 0.00800798 0.00798955
0.00282684 0.00999754 0.00712696
0.00391592 0.00839997 0.00595737
0 0.00695361 0.00262895
0.00164632 0.00623933 0.00408784
0 0.0040177 0.00850214
0.0023153 0.00498581 0.00766136
0.00143367 0.00417452 0.00999991
0.00717618 0.00711959 0.00999556
0.00611921 0.00597179 0.00841569
0.00205159 0.00794147 0.00474176
0.00304364 0.00694307 0.00646747
0.00158694 0.0060784 0.00592595
0.0099903 0.00578656 0.00831078
0 0.00718191 0.00711644
0.00158405 0.0057735 -1.05322e-09
0 0.00577432 0.00158701
0.00999367 0.00716025 0.00711028
0.00286882 0.00334955 0.00999927
0.00997166 0.00141224 0.00417045
0.00803633 0.00194515 0.0019766
0.00838955 0.00350432 0.00399561
0.00372665 0.00164861 0.00412796
0.00150903 0.00999969 0.00581498
0.00281113 -3.16356e-06 0.00712747
0.00611166 0.00417257 0.00837418
0.00999099 0.00725228 0.00419068
0.0085309 -1.94779e-05 0.00416465
0.00334085 0.00287003 -2.51686e-07
0.00270198 0.00153917 0.00999933
0.00281933 -3.5422e-06 0.00283183
0.00479879 0.00519467 0.00755323
0.00315826 0.00314655 0.00316712
0 0.00849157 0.00581511
0.0048649 0.00367025 0.00378543
0.0015368 0.00270869 2.26649e-09
0.0058005 0.00831701 0.00999672
0.00598424 0.00999047 0.0085032
0.00421369 0.00999468 0.00831646
0.00401842 0.00849889 0.00999814
0.00999671 0.00846968 0.00580934
0.00314682 0.00683373 0.00315062
0 0.00748929 0.00137438
0.00137285 0.00748898 8.13251e-09
0 0.00287343 0.00335182
0 0.00580816 0.00831736
0 0.00429792 0.00253898
0.00253262 0.00429608 -5.38755e-08
0.00143424 0.0058192 0.00999991
0.00517539 0.00646931 0.00639906
0.0036039 0.00650963 0.00823323
0.00693605 0.00261472 0.00999598
0.0080029 0.00194201 0.00803141
0.00694356 -1.45814e-05 0.00308006
0.00600171 0.00165386 0.00361142
0.00997553 0.00285052 0.00334736
0 0.00140616 0.00256446
0.00637255 0.00821795 0.00641872
0.00579619 0.00142471 -9.06623e-07
0.0060213 0.00354223 0.0016018
0.00315621 0.00999686 0.00582481
0.00855998 0.00998245 0.00582888
0.0025537 0.00140335 -6.91668e-08
0.0059509 -1.16423e-05 0.00149313
0.00627815 0.00827794 0.0036155
0.00852728 -1.93109e-05 0.00582943
0.00618897 0.00166204 0.00636324
0.00140283 0.00256407 0.00999996
0.00710747 0.00716929 -2.14118e-06
0.00516295 0.00768307 0.0021678
0.00593427 0.0060848 0.00160041
0 0.00686719 0.00578184
0.00996995 0.00138234 0.00256032
0.00177251 0.00360995 0.00640777
0.00999354 0.00846472 0.00261897
0.00840213 0.00617268 0.00412929
0.00597908 0.00998986 0.00149216
0.00694564 -1.42635e-05 0.0069237
0.00997335 0.00141204 0.00581433
0.00838081 0.00355625 0.00605692
0.00150239 -6.98017e-07 0.00581515
0 0.0013659 0.00748679
0.00136427 -5.64529e-07 0.0075289
0.00999124 0.00684544 0.00577617
0.00581137 0.00848228 -1.46267e-06
0 0.0075208 0.00859127
0.00136542 0.00748649 0.00999982
0.00422958 0.00820086 0.00362766
0.00859449 0.00998235 0.00750717
0.00999899 0.00860847 0.00751994
0.005759 0.00157699 0.00999696
0.00724858 0.00417521 0.00999565
0 0.0057735 0.00666667
0.00137016 0.00999963 0.00752889
0 0.00863025 0.00752641
0.00855593 -1.98543e-05 0.00250449
0.00998838 0.00693154 0.00262433
0.00844789 0.00632519 0.00215973
0.00850255 0.00580727 0.00999444
0.00747028 0.00135908 0.00999539
0.00856168 -1.94599e-05 0.00750739
0.00997477 0.00134253 0.00748069
0 0.00143551 0.00581971
0.00595631 -1.11524e-05 0.00850321
0.00419462 -6.92181e-06 0.00339941
0.00791852 0.00469229 0.00203183
0.00997942 0.00427553 0.00253463
0.00423056 0.00999449 0.00666547
0.00283518 0.00999761 0.0028317
0.00130725 -6.21191e-07 0.0024183
0 0.00727418 0.00419576
0.00998847 0.00575182 0.00666071
0.00697394 0.00998707 0.0030792
0.00750921 0.0086233 0.00999521
0 0.00574334 0.00336387
0 0.0043297 0.00416652
0.00686418 0.00577295 0.00999598
0.00997962 0.00299962 0.00690937
0.00420846 -6.68932e-06 0.00666583
0.00248022 0.00999789 0.00861109
0.00745885 0.00135001 -1.86649e-06
0.00577195 0.00665863 0.00999675
0.00999634 0.00749923 0.00858449
0.00860693 0.00753674 0.00999425
0.00689355 0.00300914 -1.53298e-06
0.00335733 0.00574067 -1.95232e-07
0.00752121 0.00861591 -2.57617e-06
0.00751457 0.00998512 0.00138459
0.00577378 0.0068586 -1.37891e-06
0.00696623 0.00635897 0.00303118
0.00748329 -1.65945e-05 0.00138568
0.00288153 0.00499736 0.00999915
0.00432707 0.00582914 0.00999799
0.00432342 0.00416208 0.00999805
0.00752105 0.00998569 0.00861159
0.00246659 -2.63016e-06 0.00861131
0.00998496 0.00572138 0.00335921
0 0.00302218 0.00691532
0.00998448 0.0039957 0.00849558
0.00848036 0.0039999 -2.67669e-06
0.00997324 0.00268596 0.00153776
0 0.00244495 0.00857025
0.00244645 0.00856844 0.00999916
0.00748985 -1.60562e-05 0.00861158
0.00847029 0.00260621 0.00999447
0.00883891 0.00417571 0.00999411
0.00567376 0.00999101 0.00583143
0.00518391 0.0075767 0.00503105
0.00564485 0.00999095 0.00421362
0.00697592 0.00998739 0.00692335
0.00302155 0.00691348 0.00999888
0.00415565 0.00432515 -3.99273e-07
0.00282255 -3.62965e-06 0.00440453
0.0031392 -4.04e-06 0.00582524
0.00997775 0.00417274 0.00112119
0.00363613 0.00833366 0.00158773
0.00998114 0.00430745 0.00416166
0.00665389 0.00576229 -1.61245e-06
0.00858884 0.00998195 0.00250342
0 0.00848692 0.00262374
0.00135174 0.00999969 0.00405985
0 0.00885053 0.00419359
0.00419194 0.00884499 -6.96062e-07
0.00420588 0.00999434 0.00168694
0.0049889 0.00478517 0.00237795
0.00720186 0.00450837 -1.81948e-06
0.00561813 -1.06652e-05 0.00421438
0.00564712 -1.05853e-05 0.00583187
0.0013131 0.00999971 0.00241806
0.00854322 0.00242624 -2.59744e-06
0.00998487 0.0044998 0.00721345
0.00711755 0.00998684 0.00499732
0.00573296 0.00335537 0.009997
0.00244614 -2.90638e-06 0.00135654
0.00997935 0.00242215 0.00856375
0.00239172 0.00478992 0.00499976
0.00581795 0.00432105 -1.05621e-06
0.00830183 0.00579142 -2.81964e-06
0.00548352 0.00999165 0.00721834
0.00998281 0.00430802 0.00582779
0.0054042 0.00999146 0.0027742
0.0070869 -1.48154e-05 0.004998
0.00283795 0.00999761 0.00440415
0 0.00452174 0.00721958
0.00452119 0.00721517 0.00999781
0.00545738 -9.88863e-06 0.00721838
0.00359761 0.00507082 0.00359617
0.00425461 0.00999445 0.0050073
0.00423194 -6.86458e-06 0.00500795
0.0036664 0.0052138 0.00617403
0 0.005744 0.00499998
0 0.00433013 0.00583333
0.00499024 0.00573783 -7.76002e-07
0.00497916 0.00633308 0.00355284
0.00537799 -1.01103e-05 0.00277502
0.00998665 0.00572221 0.00499468
0.00368744 0.00640472 0.00484345
0.00573804 0.00499227 0.00999691
0.00998338 0.00575215 0.0015828
0 0.00666667 0
0.008581 0.00750331 -3.26719e-06
0.00331643 -5.32968e-06 2.56177e-07
0 0.01 0.00666667
0.00500651 0.00999264 0.00999755
0 0.00288419 0.00499914
0.009989 0.00746709 0.00137005
0.00998503 0.00664442 -4.2818e-06
0 0.005 0.01
0.00498218 0.00287676 -6.99176e-07
0 0.005 0
0.00996608 -2.44327e-05 0.00332908
0.0100027 0.00997757 0.00666044
0.0041907 0.00726952 -6.18072e-07
0.00997718 0.00286147 0.00499403
0.00497601 -9.52058e-06 -2.6065e-07
0 0 0.00666667
0.00379081 0.00361311 0.00522584
0.00498254 -9.05945e-06 0.00999722
0.00996943 -2.41861e-05 0.00666096
0 0 0.005
0.00877873 0.00998112 0.00121641
0.00999322 0.00875739 0.00121559
0.00996772 -2.42766e-05 0.00499505
0.00997949 0.00497739 -4.03666e-06
0.00121548 0.00121935 -2.51331e-08
0 0.00122008 0.00122008
0 0.00333333 0.01
0 0.00666667 0.01
0.00877364 0.00876135 -3.57265e-06
0.00999938 0.0099772 0.00332818
0.00421711 0.00999442 0.00339888
0.00999489 0.00664521 0.00999293
0 0.00333333 0
0 0.00122008 0.00877992
0.00121552 -7.13266e-07 0.00877966
0.00121663 0.00121957 0.0100001
0.00878607 0.00998171 0.0087743
0.00122014 0.00877952 0.00999983
0 0.00877992 0.00877992
0.0100008 0.00875811 0.00877308
0.00666635 0.00998756 -2.33457e-06
0.00996799 0.00119599 0.00121637
0.00122089 0.0099995 0.00877998
0.00878337 0.00876218 0.00999409
0.0099893 0.0049783 0.00999298
0 0 0.00333333
0.00663666 -1.40793e-05 -1.03084e-06
0.00874569 -2.06667e-05 0.00121757
0.00120612 -7.87743e-07 0.00121198
0 0.00877992 0.00122008
0.00121933 0.00877941 6.67661e-08
0.00121168 0.00999956 0.00121138
0.00997553 0.00119656 0.00877323
0.00875827 0.0012005 0.0099941
0.00664505 -1.36511e-05 0.00999567
0.00874853 0.00119991 -2.62767e-06
0.00875314 -2.0156e-05 0.00877422
0.00997397 0.00331027 -3.82227e-06
0.00333817 0.00999611 0.00999893
0.00246011 0.0099981 0.00135613
0.00667447 0.0099883 0.00999615
0.00998374 0.00331111 0.00999299
0 0.01 0.005
0.00262219 0.00848481 -1.11912e-07
0.010001 0.0099774 0.00499441
0 0.01 0.00333333
0 0.00166667 0
0.00996444 -2.46571e-05 0.001663
0 0.00166667 0.01
0 0.00833333 0
0.00999071 0.00831078 -4.47814e-06
0.0099711 -2.4214e-05 0.0083267
0.00999778 0.009977 0.00166195
0.0100044 0.00997761 0.00832659
0.0016689 0.00999868 0.00999971
0 0.01 0.00833333
0.00833167 0.00998238 -3.4302e-06
0.00829904 -1.9475e-05 -2.15128e-06
0.00830855 -1.8961e-05 0.00999425
0.00834093 0.00998303 0.00999455
0 0 0.00833333
0.0100006 0.00831165 0.00999288
0.00165806 -1.88799e-06 1.15525e-07
0 0 0.00166667
0.0033346 0.00999618 -4.5458e-07
0.00997822 0.00164329 0.00999293
0.00996841 0.00164264 -3.67199e-06
0.00166012 -1.52162e-06 0.00999982
0.00166737 0.00999892 -6.20717e-08
0 0.01 0.00166667
0.0100062 0.00997769 0.00999292
0 0 0.01
0.00999629 0.0099768 -4.74994e-06
0.00997273 -2.43336e-05 0.00999269
0 0.01 0.01
0.0099629 -2.48068e-05 -3.43921e-06
0 0.01 0
0 0 0
0.00500059 0.00999217 -1.26331e-06
0.00332103 -4.84484e-06 0.00999851
0 0.00833333 0.01

CELLS 343 686
1 0
1 1
1 2
1 3
1 4
1 5
1 6
1 7
1 8
1 9
1 10
1 11
1 12
1 13
1 14
1 15
1 16
1 17
1 18
1 19
1 20
1 21
1 22
1 23
1 24
1 25
1 26
1 27
1 28
1 29
1 30
1 31
1 32
1 33
1 34
1 35
1 36
1 37
1 38
1 39
1 40
1 41
1 42
1 43
1 44
1 45
1 46
1 47
1 48
1 49
1 50
1 51
1 52
1 53
1 54
1 55
1 56
1 57
1 58
1 59
1 60
1 61
1 62
1 63
1 64
1 65
1 66
1 67
1 68
1 69
1 70
1 71
1 72
1 73
1 74
1 75
1 76
1 77
1 78
1 79
1 80
1 81
1 82
1 83
1 84
1 85
1 86
1 87
1 88
1 89
1 90
1 91
1 92
1 93
1 94
1 95
1 96
1 97
1 98
1 99
1 100
1 101
1 102
1 103
1 104
1 105
1 106
1 107
1 108
1 109
1 110
1 111
1 112
1 113
1 114
1 115
1 116
1 117
1 118
1 119
1 120
1 121
1 122
1 123
1 124
1 125
1 126
1 127
1 128
1 129
1 130
1 131
1 132
1 133
1 134
1 135
1 136
1 137
1 138
1 139
1 140
1 141
1 142
1 143
1 144
1 145
1 146
1 147
1 148
1 149
1 150
1 151
1 152
1 153
1 154
1 155
1 156
1 157
1 158
1 159
1 160
1 161
1 162
1 163
1 164
1 165
1 166
1 167
1 168
1 169
1 170
1 171
1 172
1 173
1 174
1 175
1 176
1 177
1 178
1 179
1 180
1 181
1 182
1 183
1 184
1 185
1 186
1 187
1 188
1 189
1 190
1 191
1 192
1 193
1 194
1 195
1 196
1 197
1 198
1 199
1 200
1 201
1 202
1 203
1 204
1 205
1 206
1 207
1 208
1 209
1 210
1 211
1 212
1 213
1 214
1 215
1 216
1 217
1 218
1 219
1 220
1 221
1 222
1 223
1 224
1 225
1 226
1 227
1 228
1 229
1 230
1 231
1 232
1 233
1 234
1 235
1 236
1 237
1 238
1 239
1 240
1 241
1 242
1 243
1 244
1 245
1 246
1 247
1 248
1 249
1 250
1 251
1 252
1 253
1 254
1 255
1 256
1 257
1 258
1 259
1 260
1 261
1 262
1 263
1 264
1 265
1 266
1 267
1 268
1 269
1 270
1 271
1 272
1 273
1 274
1 275
1 276
1 277
1 278
1 279
1 280
1 281
1 282
1 283
1 284
1 285
1 286
1 287
1 288
1 289
1 290
1 291
1 292
1 293
1 294
1 295
1 296
1 297
1 298
1 299
1 300
1 301
1 302
1 303
1 304
1 305
1 306
1 307
1 308
1 309
1 310
1 311
1 312
1 313
1 314
1 315
1 316
1 317
1 318
1 319
1 320
1 321
1 322
1 323
1 324
1 325
1 326
1 327
1 328
1 329
1 330
1 331
1 332
1 333
1 334
1 335
1 336
1 337
1 338
1 339
1 340
1 341
1 342

CELL_TYPES 343
1
1
1
1
1
1
1
1
1
1
1
1
1
1
1
1
1
1
1
1
1
1
1
1
1
1
1
1
1
1
1
1
1
1
1
1
1
1
1
1
1
1
1
1
1
1
1
1
1
1
1
1
1
1
1
1
1
1
1
1
1
1
1
1
1
1
1
1
1
1
1
1
1
1
1
1
1
1
1
1
1
1
1
1
1
1
1
1
1
1
1
1
1
1
1
1
1
1
1
1
1
1
1
1
1
1
1
1
1
1
1
1
1
1
1
1
1
1
1
1
1
1
1
1
1
1
1
1
1
1
1
1
1
1
1
1
1
1
1
1
1
1
1
1
1
1
1
1
1
1
1
1
1
1
1
1
1
1
1
1
1
1
1
1
1
1
1
1
1
1
1
1
1
1
1
1
1
1
1
1
1
1
1
1
1
1
1
1
1
1
1
1
1
1
1
1
1
1
1
1
1
1
1
1
1
1
1
1
1
1
1
1
1
1
1
1
1
1
1
1
1
1
1
1
1
1
1
1
1
1
1
1
1
1
1
1
1
1
1
1
1
1
1
1
1
1
1
1
1
1
1
1
1
1
1
1
1
1
1
1
1
1
1
1
1
1
1
1
1
1
1
1
1
1
1
1
1
1
1
1
1
1
1
1
1
1
1
1
1
1
1
1
1
1
1
1
1
1
1
1
1
1
1
1
1
1
1
1
1
1
1
1
1
1
1
1
1
1
1
1
1
1
1
1
1
1
1
1
1
1
1
1
1
1
1
1
1
1
1
1
1
1
1

POINT_DATA 343
FIELD FieldData 3

ExternalForceID_(#) 1 343 int
0
1
2
3
4
5
6
7
8
9
10
11
12
13
14
15
16
17
18
19
20
21
22
23
24
25
26
27
28
29
30
31
32
33
34
35
36
37
38
39
40
41
42
43
44
45
46
47
48
49
50
51
52
53
54
55
56
57
58
59
60
61
62
63
64
65
66
67
68
69
70
71
72
73
74
75
76
77
78
79
80
81
82
83
84
85
86
87
88
89
90
91
92
93
94
95
96
97
98
99
100
101
102
103
104
105
106
107
108
109
110
111
112
113
114
115
116
117
118
119
120
121
122
123
124
125
126
127
128
129
130
131
132
133
134
135
136
137
138
139
140
141
142
143
144
145
146
147
148
149
150
151
152
153
154
155
156
157
158
159
160
161
162
163
164
165
166
167
168
169
170
171
172
173
174
175
176
177
178
179
180
181
182
183
184
185
186
187
188
189
190
191
192
193
194
195
196
197
198
199
200
201
202
203
204
205
206
207
208
209
210
211
212
213
214
215
216
217
218
219
220
221
222
223
224
225
226
227
228
229
230
231
232
233
234
235
236
237
238
239
240
241
242
243
244
245
246
247
248
249
250
251
252
253
254
255
256
257
258
259
260
261
262
263
264
265
266
267
268
269
270
271
272
273
274
275
276
277
278
279
280
281
282
283
284
285
286
287
288
289
290
291
292
293
294
295
296
297
298
299
300
301
302
303
304
305
306
307
308
309
310
311
312
313
314
315
316
317
318
319
320
321
322
323
324
325
326
327
328
329
330
331
332
333
334
335
336
337
338
339
340
341
342

ExternalForceType_(0/1/2/3/4) 1 343 int
0
0
0
0
0
0
0
0
0
0
0
0
0
0
0
0
0
0
0
0
0
0
0
0
0
0
0
0
0
0
0
0
0
0
0
0
0
0
0
0
0
0
0
0
0
0
0
0
0
0
0
0
0
0
0
0
0
0
0
0
0
0
0
0
0
0
0
0
0
0
0
0
0
0
0
0
0
0
0
0
0
0
0
0
0
0
0
0
0
0
0
0
0
0
0
0
0
0
0
0
0
0
0
0
0
0
0
0
0
0
0
0
0
0
0
0
0
0
0
0
0
0
0
0
0
0
0
0
0
0
0
0
0
0
0
0
0
0
0
0
0
0
0
0
0
0
0
0
0
0
0
0
0
0
0
0
0
0
0
0
0
0
0
0
0
0
0
0
0
0
0
0
0
0
0
0
0
0
0
0
0
0
0
0
0
0
0
0
0
0
0
0
0
0
0
0
0
0
0
0
0
0
0
0
0
0
0
0
0
0
0
0
0
0
0
0
0
0
0
0
0
0
0
0
0
0
0
0
0
0
0
0
0
0
0
0
0
0
0
0
0
0
0
0
0
0
0
0
0
0
0
0
0
0
0
0
0
0
0
0
0
0
0
0
0
0
0
0
0
0
0
0
0
0
0
0
0
0
0
0
0
0
0
0
0
0
0
0
0
0
0
0
0
0
0
0
0
0
0
0
0
0
0
0
0
0
0
0
0
0
0
0
0
0
0
0
0
0
0
0
0
0
0
0
0
0
0
0
0
0
0
0
0
0
0
0
0
0
0
0
0
0
0

ExternalForce_(N) 3 343 double
0 -3.09568e-05 0
0 -0.000138619 0
0 -2.16714e-05 0
0 -0.000168226 0
0 -8.26002e-05 0
0 -8.9203e-05 0
0 -9.74165e-05 0
0 -7.37906e-05 0
0 -6.68156e-05 0
0 -5.47617e-05 0
0 -3.04981e-05 0
0 -0.000105531 0
0 -4.77758e-05 0
0 -0.000161821 0
0 -2.96713e-05 0
0 -7.9067e-05 0
0 -6.57564e-05 0
0 -0.000106704 0
0 -4.11017e-05 0
0 -8.006e-05 0
0 -6.02474e-05 0
0 -0.000115662 0
0 -2.18875e-05 0
0 -4.17098e-05 0
0 -0.000107827 0
0 -7.27379e-05 0
0 -4.13856e-05 0
0 -3.85027e-05 0
0 -3.029e-05 0
0 -0.000128774 0
0 -7.57947e-05 0
0 -0.000162261 0
0 -0.000116775 0
0 -7.15802e-05 0
0 -3.74431e-05 0
0 -0.000108892 0
0 -3.74072e-05 0
0 -0.000136493 0
0 -6.25303e-05 0
0 -7.85756e-05 0
0 -7.52544e-05 0
0 -0.000116589 0
0 -0.000160874 0
0 -2.73339e-05 0
0 -8.7662e-05 0
0 -2.53184e-05 0
0 -7.42972e-05 0
0 -4.15199e-05 0
0 -0.000128792 0
0 -3.72945e-05 0
0 -2.72189e-05 0
0 -7.03157e-05 0
0 -0.000119003 0
0 -5.02041e-05 0
0 -8.04153e-05 0
0 -4.4939e-05 0
0 -2.74192e-05 0
0 -3.19929e-05 0
0 -4.04607e-05 0
0 -2.07889e-05 0
0 -3.28809e-05 0
0 -3.54797e-05 0
0 -0.000153858 0
0 -7.19739e-05 0
0 -8.09026e-05 0
0 -4.90862e-05 0
0 -2.77255e-05 0
0 -7.06591e-05 0
0 -3.20606e-05 0
0 -4.10794e-05 0
0 -1.98932e-05 0
0 -2.37551e-05 0
0 -3.0591e-05 0
0 -5.86107e-05 0
0 -5.75946e-05 0
0 -4.01595e-05 0
0 -5.35099e-05 0
0 -2.24477e-05 0
0 -4.41213e-05 0
0 -4.29866e-05 0
0 -4.42325e-05 0
0 -4.30889e-05 0
0 -4.19155e-05 0
0 -5.21923e-05 0
0 -1.5029e-05 0
0 -2.34331e-05 0
0 -1.9903e-05 0
0 -4.30461e-05 0
0 -3.11931e-05 0
0 -3.08326e-05 0
0 -4.52797e-05 0
0 -5.7648e-05 0
0 -8.02544e-05 0
0 -2.43623e-05 0
0 -0.000150893 0
0 -3.43039e-05 0
0 -7.21258e-05 0
0 -1.97489e-05 0
0 -2.00202e-05 0
0 -7.83017e-05 0
0 -4.32908e-05 0
0 -7.00326e-05 0
0 -1.17841e-05 0
0 -4.93779e-05 0
0 -1.58193e-05 0
0 -4.04762e-05 0
0 -8.57147e-05 0
0 -4.2953e-05 0
0 -7.82027e-05 0
0 -2.09499e-05 0
0 -3.31713e-05 0
0 -9.30599e-05 0
0 -7.26197e-05 0
0 -1.76801e-05 0
0 -2.06228e-05 0
0 -7.8371e-05 0
0 -1.84411e-05 0
0 -7.30662e-05 0
0 -4.11806e-05 0
0 -2.3265e-05 0
0 -4.23503e-05 0
0 -5.94919e-05 0
0 -4.22718e-05 0
0 -2.12723e-05 0
0 -1.86252e-05 0
0 -1.77849e-05 0
0 -3.82356e-05 0
0 -2.39658e-05 0
0 -1.62481e-05 0
0 -7.86148e-05 0
0 -1.61387e-05 0
0 -2.34763e-05 0
0 -2.95637e-05 0
0 -2.93742e-05 0
0 -1.33947e-05 0
0 -1.83735e-05 0
0 -2.05639e-05 0
0 -1.91062e-05 0
0 -1.84053e-05 0
0 -6.25793e-05 0
0 -4.49914e-05 0
0 -1.98914e-05 0
0 -1.58922e-05 0
0 -2.367e-05 0
0 -3.81266e-05 0
0 -4.36518e-05 0
0 -2.25472e-05 0
0 -0.000115119 0
0 -3.05886e-05 0
0 -1.32828e-05 0
0 -3.38507e-05 0
0 -1.78391e-05 0
0 -2.88237e-05 0
0 -1.34771e-05 0
0 -2.36876e-05 0
0 -2.06453e-05 0
0 -2.58912e-05 0
0 -2.10097e-05 0
0 -1.7602e-05 0
0 -3.13896e-05 0
0 -1.34386e-05 0
0 -2.38863e-05 0
0 -2.04203e-05 0
0 -1.33426e-05 0
0 -2.13076e-05 0
0 -1.86316e-05 0
0 -3.10974e-05 0
0 -2.56228e-05 0
0 -2.33161e-05 0
0 -1.57181e-05 0
0 -1.87061e-05 0
0 -5.38771e-05 0
0 -1.84308e-05 0
0 -3.08341e-05 0
0 -2.91652e-05 0
0 -1.16203e-05 0
0 -1.85667e-05 0
0 -2.00287e-05 0
0 -2.68375e-05 0
0 -2.37799e-05 0
0 -3.16945e-05 0
0 -3.13676e-05 0
0 -3.15313e-05 0
0 -1.90796e-05 0
0 -1.58134e-05 0
0 -1.83326e-05 0
0 -3.16308e-05 0
0 -2.07128e-05 0
0 -2.91276e-05 0
0 -6.03597e-05 0
0 -2.26581e-05 0
0 -2.35174e-05 0
0 -2.33506e-05 0
0 -2.59482e-05 0
0 -1.63393e-05 0
0 -1.78912e-05 0
0 -2.02658e-05 0
0 -5.62379e-05 0
0 -2.04507e-05 0
0 -2.14176e-05 0
0 -2.38895e-05 0
0 -3.05955e-05 0
0 -3.11287e-05 0
0 -2.01544e-05 0
0 -1.92198e-05 0
0 -2.99909e-05 0
0 -6.32085e-05 0
0 -2.04829e-05 0
0 -2.67435e-05 0
0 -2.11611e-05 0
0 -1.83262e-05 0
0 -1.96474e-05 0
0 -2.0699e-05 0
0 -2.83503e-05 0
0 -2.27807e-05 0
0 -2.35234e-05 0
0 -1.93874e-05 0
0 -6.29086e-05 0
0 -2.12117e-05 0
0 -3.22943e-05 0
0 -2.06229e-05 0
0 -2.61501e-05 0
0 -1.90721e-05 0
0 -2.86319e-05 0
0 -2.53212e-05 0
0 -2.07681e-05 0
0 -2.05553e-05 0
0 -1.88077e-05 0
0 -6.92631e-05 0
0 -2.20924e-05 0
0 -2.02457e-05 0
0 -6.16224e-05 0
0 -2.08117e-05 0
0 -2.85397e-05 0
0 -2.08875e-05 0
0 -6.32617e-05 0
0 -1.39008e-05 0
0 -2.0289e-05 0
0 -6.45558e-05 0
0 -2.47785e-05 0
0 -2.35177e-05 0
0 -7.28089e-06 0
0 -2.18143e-05 0
0 -6.93323e-06 0
0 -6.87344e-06 0
0 -8.76768e-06 0
0 -2.48719e-05 0
0 -2.22231e-05 0
0 -1.31068e-05 0
0 -7.69816e-06 0
0 -2.27889e-05 0
0 -5.95166e-06 0
0 -6.55579e-06 0
0 -6.71305e-06 0
0 -2.46468e-05 0
0 -2.27228e-05 0
0 -7.6878e-06 0
0 -6.67903e-06 0
0 -6.10861e-05 0
0 -6.6189e-06 0
0 -6.52665e-06 0
0 -6.87836e-06 0
0 -1.78856e-05 0
0 -1.87072e-05 0
0 -6.73674e-06 0
0 -6.91401e-06 0
0 -1.82903e-05 0
0 -2.2423e-05 0
0 -6.67521e-06 0
0 -7.02401e-06 0
0 -1.78908e-05 0
0 -5.89658e-06 0
0 -1.98938e-05 0
0 -7.3162e-06 0
0 -5.63509e-06 0
0 -1.76631e-05 0
0 -1.42638e-05 0
0 -2.22707e-05 0
0 -1.77204e-05 0
0 -2.11264e-05 0
0 -1.75686e-05 0
0 -1.76047e-05 0
0 -6.69346e-06 0
0 -2.20467e-05 0
0 -1.42479e-05 0
0 -1.76144e-05 0
0 -6.84615e-06 0
0 -6.12404e-06 0
0 -6.50125e-06 0
0 -1.41879e-05 0
0 -1.37476e-05 0
0 -2.11168e-05 0
0 -1.79377e-05 0
0 -1.37282e-05 0
0 -1.41198e-05 0
0 -2.15061e-05 0
0 -6.84475e-06 0
0 -1.74349e-05 0
0 -1.75758e-05 0
0 -6.41828e-06 0
0 -7.20025e-06 0
0 -2.30432e-05 0
0 -6.96894e-06 0
0 -6.44499e-06 0
0 -6.14414e-06 0
0 -2.14766e-05 0
0 -6.00855e-06 0
0 -5.92427e-06 0
0 -5.81567e-06 0
0 -5.02303e-06 0
0 -5.01945e-06 0
0 -4.85271e-06 0
0 -4.87573e-06 0
0 -4.8684e-06 0
0 -5.22951e-06 0
0 -4.84801e-06 0
0 -4.88396e-06 0
0 -4.77612e-06 0
0 -4.81304e-06 0
0 -4.85251e-06 0
0 -4.8555e-06 0
0 -4.82575e-06 0
0 -4.80313e-06 0
0 -4.86923e-06 0
0 -4.85781e-06 0
0 -4.73027e-06 0
0 -1.08748e-05 0
0 -5.22863e-06 0
0 -5.34413e-06 0
0 -5.26459e-06 0
0 -5.05624e-06 0
0 -4.92238e-06 0
0 -5.43253e-06 0
0 -5.43253e-06 0
0 -5.43253e-06 0
0 -5.43253e-06 0
0 -5.43253e-06 0
0 -5.43253e-06 0
0 -5.40321e-06 0
0 -5.40321e-06 0
0 -7.3113e-06 0
0 -6.98147e-06 0
0 -4.8949e-06 0

