# vtk DataFile Version 4.2
vtk output
ASCII
DATASET UNSTRUCTURED_GRID

POINTS 343 double
0.00112248 0.00419492 8.54696e-08
0.00217108 0.00498252 0.00217533
0 0.00419538 0.00112517
0.00193008 0.00195446 0.00194214
0.00516974 0.00240693 0.00503199
0.00517251 0.00383007 0.00639725
0.00762282 0.0047755 0.0049983
0.00622463 0.00485045 0.0036914
0.00683673 0.00328869 0.00691341
0.0049912 0.00499255 0.00499958
0.00418101 0.00111821 0.00999884
0.00528154 0.00208034 0.00790371
0.00419084 -7.33707e-06 0.00831692
0.00201255 0.00200249 0.00803322
0.00428675 0.00253293 0.00999887
0.00695689 0.00644681 0.00694632
0.00641386 0.00618244 0.00518261
0.00226069 0.00218463 0.00514607
0 0.00143586 0.00417514
0.00159462 0.00346615 0.00403702
0.00683723 0.00319403 0.00316103
0.00774582 0.00221316 0.00506326
0 0.00270918 0.00154168
0.00415814 0.00142859 3.40102e-08
0.00500784 0.00218789 0.00219775
0.0039624 0.00352672 0.00160298
0.00134545 -5.98685e-07 0.00406001
0.00418345 -7.70995e-06 0.00168811
0.00262605 0.00695164 9.34743e-08
0.00193824 0.00805273 0.00194489
0.0040875 0.00624805 0.00164496
0.00800335 0.00798595 0.00799637
0.00796547 0.00481561 0.00802141
0.00838857 0.00607957 0.00594703
0.00999885 0.00882543 0.00419069
0.00757695 0.00763563 0.00496298
0.00856671 0.00997996 0.00416558
0.00797615 0.00797107 0.00201521
0.0035363 0.00303655 0.00695939
0.00443787 0.00366192 0.00832372
0.00389268 0.00160058 0.00596889
0.00500584 0.00766827 0.00767631
0.00198978 0.00800789 0.00798961
0.0028276 0.00999729 0.00712708
0.00391674 0.0083995 0.00595767
0 0.00695361 0.00262895
0.00164652 0.00623926 0.00408788
0 0.0040177 0.00850214
0.00231521 0.00498571 0.00766146
0.00143345 0.00417447 0.00999993
0.00717564 0.00711803 0.00999702
0.00611871 0.0059707 0.00841675
0.00205194 0.00794141 0.00474182
0.00304389 0.00694288 0.00646763
0.00158701 0.00607835 0.005926
0.00998974 0.00578361 0.00831324
0 0.00718191 0.00711644
0.0015845 0.00577344 3.76637e-08
0 0.00577432 0.00158701
0.00999426 0.00715732 0.0071127
0.0028679 0.00334931 0.00999955
0.00997053 0.001409 0.00417281
0.00803626 0.00194291 0.0019782
0.00838948 0.00350206 0.00399732
0.003726 0.00164806 0.00412823
0.00150941 0.00999968 0.005815
0.00280996 -3.54031e-06 0.00712764
0.00611043 0.00417143 0.00837524
0.0099928 0.00724936 0.004193
0.00852903 -2.20679e-05 0.00416645
0.00334147 0.00286968 4.57628e-08
0.00270074 0.00153887 0.00999959
0.00281858 -3.92513e-06 0.00283198
0.00479831 0.00519405 0.00755386
0.00315824 0.00314628 0.0031673
0 0.00849157 0.00581511
0.00486489 0.00366952 0.00378596
0.00153699 0.00270866 3.01992e-08
0.00580039 0.00831593 0.00999774
0.00598526 0.00998929 0.00850426
0.0042144 0.00999407 0.00831698
0.00401834 0.00849832 0.00999864
0.00999846 0.00846675 0.00581171
0.00314744 0.00683352 0.00315081
0 0.00748929 0.00137438
0.00137333 0.00748898 1.7465e-08
0 0.00287343 0.00335182
0 0.00580816 0.00831736
0 0.00429792 0.00253898
0.00253335 0.00429591 1.10869e-07
0.00143407 0.00581917 0.00999994
0.00517567 0.00646856 0.00639969
0.0036037 0.00650936 0.0082336
0.00693352 0.00261305 0.00999737
0.0080005 0.00193979 0.00803307
0.00694226 -1.64373e-05 0.00308126
0.00600098 0.0016525 0.00361229
0.00997545 0.00284741 0.00334971
0 0.00140616 0.00256446
0.00637356 0.00821668 0.00641969
0.0057964 0.00142336 2.52514e-08
0.00602189 0.00354101 0.00160279
0.0031572 0.0099965 0.00582502
0.00856235 0.00998014 0.00583066
0.00255388 0.00140304 1.16312e-07
0.00595011 -1.30814e-05 0.00149414
0.00628013 0.0082767 0.00361643
0.00852477 -2.18891e-05 0.00583123
0.00618732 0.00166062 0.00636417
0.0014025 0.00256406 0.00999999
0.00711041 0.00716774 -7.8213e-07
0.00516484 0.00768226 0.00216848
0.00593596 0.00608379 0.00160136
0 0.00686719 0.00578184
0.00996944 0.00137909 0.00256267
0.00177238 0.00360989 0.00640783
0.00999659 0.00846176 0.00262131
0.00840332 0.00617052 0.00413099
0.00598233 0.00998862 0.00149312
0.00694294 -1.61392e-05 0.0069249
0.00997156 0.00140882 0.00581671
0.00837992 0.003554 0.00605867
0.00150202 -7.57764e-07 0.00581518
0 0.0013659 0.00748679
0.00136388 -6.30467e-07 0.0075289
0.00999221 0.00684252 0.00577853
0.00581445 0.0084812 -4.99603e-07
0 0.0075208 0.00859127
0.00136533 0.00748644 0.00999986
0.00423089 0.00820031 0.003628
0.0085962 0.00998002 0.00750904
0.0100001 0.00860554 0.00752237
0.00575633 0.00157571 0.00999798
0.00724667 0.00417356 0.00999715
0 0.0057735 0.00666667
0.0013704 0.00999961 0.00752891
0 0.00863025 0.00752641
0.00855471 -2.24854e-05 0.0025063
0.00999065 0.00692862 0.00262667
0.00844994 0.00632301 0.00216146
0.00850129 0.00580507 0.00999636
0.0074671 0.00135704 0.00999696
0.0085585 -2.20918e-05 0.00750922
0.00997229 0.00133929 0.00748311
0 0.00143551 0.00581971
0.00595339 -1.26068e-05 0.0085042
0.00419353 -7.74283e-06 0.00339982
0.00791975 0.0046903 0.00203337
0.00998037 0.0042725 0.00253695
0.00423174 0.00999385 0.00666587
0.00283647 0.00999735 0.00283184
0.00130706 -6.55425e-07 0.00241832
0 0.00727418 0.00419576
0.00998852 0.00574887 0.0066631
0.00697701 0.00998545 0.00308037
0.0075093 0.0086215 0.0099968
0 0.00574334 0.00336387
0 0.0043297 0.00416652
0.00686303 0.00577154 0.00999736
0.00997818 0.00299654 0.00691178
0.00420671 -7.52709e-06 0.00666622
0.00248066 0.00999769 0.00861126
0.00745914 0.00134795 -3.95042e-07
0.00577124 0.00665765 0.00999778
0.00999652 0.00749631 0.00858694
0.00860651 0.0075345 0.00999622
0.00689451 0.00300751 -2.34739e-07
0.00335854 0.00574044 1.34728e-07
0.0075249 0.00861413 -1.06132e-06
0.00751838 0.00998325 0.00138605
0.0057762 0.0068576 -4.19789e-07
0.00696778 0.00635752 0.00303236
0.00748251 -1.8739e-05 0.00138715
0.00288088 0.00499715 0.00999945
0.00432617 0.00582867 0.00999863
0.00432215 0.00416155 0.0099987
0.00752221 0.00998384 0.00861316
0.00246541 -2.9783e-06 0.00861146
0.00998632 0.00571841 0.00336153
0 0.00302218 0.00691532
0.00998291 0.00399269 0.00849803
0.00848204 0.00399757 -8.4768e-07
0.00997379 0.00268281 0.00154009
0 0.00244495 0.00857025
0.00244634 0.00856822 0.00999938
0.00748648 -1.82225e-05 0.00861307
0.00846744 0.00260385 0.00999638
0.00883682 0.00417328 0.00999616
0.00567545 0.0099899 0.00583216
0.00518491 0.00757589 0.00503163
0.00564706 0.00998984 0.00421432
0.0069776 0.00998578 0.00692454
0.00302114 0.00691333 0.0099992
0.00415677 0.00432467 1.4271e-07
0.00282169 -4.04758e-06 0.00440469
0.00313805 -4.51544e-06 0.00582544
0.0099792 0.00416969 0.00112353
0.00363764 0.00833323 0.00158812
0.00998147 0.00430443 0.00416402
0.00665607 0.00576094 -3.88635e-07
0.00859255 0.00997961 0.0025052
0 0.00848692 0.00262374
0.0013521 0.00999966 0.00405986
0 0.00885053 0.00419359
0.00419428 0.00884438 -1.38039e-07
0.00420818 0.00999367 0.00168742
0.00498966 0.00478449 0.00237858
0.00720356 0.00450669 -4.24164e-07
0.00561666 -1.19994e-05 0.00421512
0.00564512 -1.19289e-05 0.00583261
0.00131356 0.00999968 0.00241806
0.00854413 0.00242379 -7.53669e-07
0.00998407 0.00449681 0.00721586
0.00711998 0.00998516 0.00499853
0.00573102 0.00335429 0.00999802
0.00244571 -3.18844e-06 0.00135669
0.00997696 0.00241899 0.00856621
0.00239181 0.00478979 0.00499987
0.0058193 0.00431997 -5.51834e-08
0.00830438 0.0057893 -1.03838e-06
0.00548481 0.00999063 0.00721912
0.00998246 0.00430501 0.00583017
0.00540678 0.00999043 0.00277488
0.00708489 -1.6728e-05 0.00499924
0.00283905 0.00999735 0.00440427
0 0.00452174 0.00721958
0.00452073 0.00721459 0.00999847
0.00545504 -1.11492e-05 0.00721912
0.00359795 0.0050705 0.00359641
0.0042562 0.0099938 0.00500766
0.0042305 -7.70763e-06 0.00500831
0.00366638 0.00521348 0.0061743
0 0.005744 0.00499998
0 0.00433013 0.00583333
0.00499198 0.00573718 -3.20439e-09
0.00498013 0.00633241 0.00355339
0.00537692 -1.13502e-05 0.00277578
0.00998735 0.00571925 0.00499703
0.00368788 0.00640441 0.00484369
0.00573672 0.00499133 0.00999794
0.00998546 0.00574917 0.00158513
0 0.00666667 0
0.00858444 0.00750106 -1.39587e-06
0.00331624 -5.97734e-06 6.6871e-07
0 0.01 0.00666667
0.00500685 0.00999173 0.00999839
0 0.00288419 0.00499914
0.00999203 0.00746417 0.00137239
0.00998816 0.00664146 -1.88404e-06
0 0.005 0.01
0.00498289 0.00287588 2.57061e-08
0 0.005 0
0.00996455 -2.777e-05 0.00333144
0.0100049 0.00997456 0.00666282
0.0041926 0.00726904 -6.13068e-08
0.00997642 0.00285838 0.0049964
0.00497576 -1.0693e-05 5.21392e-07
0 0 0.00666667
0.00379056 0.00361272 0.0052261
0.00497973 -1.01828e-05 0.00999802
0.00996658 -2.75016e-05 0.00666334
0 0 0.005
0.00878296 0.00997869 0.0012183
0.00999696 0.00875443 0.00121794
0.00996553 -2.75916e-05 0.00499742
0.00998176 0.00497438 -1.64292e-06
0.00121553 0.00121927 -1.20724e-08
0 0.00122008 0.00122008
0 0.00333333 0.01
0 0.00666667 0.01
0.00877772 0.00875899 -1.64056e-06
0.0100029 0.00997419 0.0033305
0.00421904 0.00999375 0.00339922
0.00999407 0.00664229 0.00999546
0 0.00333333 0
0 0.00122008 0.00877992
0.00121511 -8.01532e-07 0.00877967
0.0012163 0.00121953 0.0100001
0.00878731 0.00997927 0.00877635
0.00122013 0.00877946 0.00999986
0 0.00877992 0.00877992
0.0100016 0.00875515 0.00877555
0.00667036 0.00998605 -1.11963e-06
0.0099679 0.00119271 0.00121871
0.00122106 0.00999946 0.00878006
0.00878356 0.00875979 0.00999614
0.00998763 0.00497531 0.0099955
0 0 0.00333333
0.00663632 -1.58917e-05 2.45159e-07
0.00874495 -2.34288e-05 0.0012195
0.00120599 -8.50261e-07 0.00121206
0 0.00877992 0.00122008
0.00121982 0.0087794 9.13633e-08
0.00121218 0.00999952 0.0012114
0.00997245 0.0011933 0.00877569
0.00875471 0.00119784 0.00999611
0.00664146 -1.54026e-05 0.00999696
0.00874884 0.00119721 -7.05648e-07
0.00874946 -2.29038e-05 0.00877618
0.00997541 0.00330716 -1.44197e-06
0.0033384 0.00999562 0.00999938
0.00246144 0.00999789 0.00135627
0.00667509 0.00998677 0.00999753
0.00998123 0.00330806 0.0099955
0 0.01 0.005
0.00262358 0.00848463 8.88932e-08
0.0100039 0.00997439 0.00499674
0 0.01 0.00333333
0 0.00166667 0
0.00996357 -2.80182e-05 0.00166536
0 0.00166667 0.01
0 0.00833333 0
0.00999467 0.00830783 -2.10583e-06
0.0099676 -2.75558e-05 0.00832913
0.0100019 0.00997398 0.00166429
0.0100059 0.00997459 0.00832907
0.00166908 0.00999853 0.00999984
0 0.01 0.00833333
0.00833622 0.00998015 -1.64501e-06
0.00829874 -2.20558e-05 -3.53685e-07
0.00830451 -2.15143e-05 0.00999611
0.00834166 0.00998076 0.00999647
0 0 0.00833333
0.0100006 0.0083087 0.00999541
0.00165787 -2.0887e-06 2.19806e-07
0 0 0.00166667
0.00333679 0.00999576 -1.05818e-07
0.00997487 0.00164005 0.00999544
0.009969 0.00163938 -1.29876e-06
0.00165933 -1.70416e-06 0.00999994
0.00166832 0.00999882 2.88605e-08
0 0.01 0.00166667
0.010007 0.00997464 0.00999548
0 0 0.01
0.0100011 0.00997379 -2.38677e-06
0.00996857 -2.76695e-05 0.00999517
0 0.01 0.01
0.00996265 -2.82132e-05 -1.04596e-06
0 0.01 0
0 0 0
0.00500378 0.00999123 -5.29454e-07
0.00331908 -5.39627e-06 0.00999889
0 0.00833333 0.01

CELLS 343 686
1 0
1 1
1 2
1 3
1 4
1 5
1 6
1 7
1 8
1 9
1 10
1 11
1 12
1 13
1 14
1 15
1 16
1 17
1 18
1 19
1 20
1 21
1 22
1 23
1 24
1 25
1 26
1 27
1 28
1 29
1 30
1 31
1 32
1 33
1 34
1 35
1 36
1 37
1 38
1 39
1 40
1 41
1 42
1 43
1 44
1 45
1 46
1 47
1 48
1 49
1 50
1 51
1 52
1 53
1 54
1 55
1 56
1 57
1 58
1 59
1 60
1 61
1 62
1 63
1 64
1 65
1 66
1 67
1 68
1 69
1 70
1 71
1 72
1 73
1 74
1 75
1 76
1 77
1 78
1 79
1 80
1 81
1 82
1 83
1 84
1 85
1 86
1 87
1 88
1 89
1 90
1 91
1 92
1 93
1 94
1 95
1 96
1 97
1 98
1 99
1 100
1 101
1 102
1 103
1 104
1 105
1 106
1 107
1 108
1 109
1 110
1 111
1 112
1 113
1 114
1 115
1 116
1 117
1 118
1 119
1 120
1 121
1 122
1 123
1 124
1 125
1 126
1 127
1 128
1 129
1 130
1 131
1 132
1 133
1 134
1 135
1 136
1 137
1 138
1 139
1 140
1 141
1 142
1 143
1 144
1 145
1 146
1 147
1 148
1 149
1 150
1 151
1 152
1 153
1 154
1 155
1 156
1 157
1 158
1 159
1 160
1 161
1 162
1 163
1 164
1 165
1 166
1 167
1 168
1 169
1 170
1 171
1 172
1 173
1 174
1 175
1 176
1 177
1 178
1 179
1 180
1 181
1 182
1 183
1 184
1 185
1 186
1 187
1 188
1 189
1 190
1 191
1 192
1 193
1 194
1 195
1 196
1 197
1 198
1 199
1 200
1 201
1 202
1 203
1 204
1 205
1 206
1 207
1 208
1 209
1 210
1 211
1 212
1 213
1 214
1 215
1 216
1 217
1 218
1 219
1 220
1 221
1 222
1 223
1 224
1 225
1 226
1 227
1 228
1 229
1 230
1 231
1 232
1 233
1 234
1 235
1 236
1 237
1 238
1 239
1 240
1 241
1 242
1 243
1 244
1 245
1 246
1 247
1 248
1 249
1 250
1 251
1 252
1 253
1 254
1 255
1 256
1 257
1 258
1 259
1 260
1 261
1 262
1 263
1 264
1 265
1 266
1 267
1 268
1 269
1 270
1 271
1 272
1 273
1 274
1 275
1 276
1 277
1 278
1 279
1 280
1 281
1 282
1 283
1 284
1 285
1 286
1 287
1 288
1 289
1 290
1 291
1 292
1 293
1 294
1 295
1 296
1 297
1 298
1 299
1 300
1 301
1 302
1 303
1 304
1 305
1 306
1 307
1 308
1 309
1 310
1 311
1 312
1 313
1 314
1 315
1 316
1 317
1 318
1 319
1 320
1 321
1 322
1 323
1 324
1 325
1 326
1 327
1 328
1 329
1 330
1 331
1 332
1 333
1 334
1 335
1 336
1 337
1 338
1 339
1 340
1 341
1 342

CELL_TYPES 343
1
1
1
1
1
1
1
1
1
1
1
1
1
1
1
1
1
1
1
1
1
1
1
1
1
1
1
1
1
1
1
1
1
1
1
1
1
1
1
1
1
1
1
1
1
1
1
1
1
1
1
1
1
1
1
1
1
1
1
1
1
1
1
1
1
1
1
1
1
1
1
1
1
1
1
1
1
1
1
1
1
1
1
1
1
1
1
1
1
1
1
1
1
1
1
1
1
1
1
1
1
1
1
1
1
1
1
1
1
1
1
1
1
1
1
1
1
1
1
1
1
1
1
1
1
1
1
1
1
1
1
1
1
1
1
1
1
1
1
1
1
1
1
1
1
1
1
1
1
1
1
1
1
1
1
1
1
1
1
1
1
1
1
1
1
1
1
1
1
1
1
1
1
1
1
1
1
1
1
1
1
1
1
1
1
1
1
1
1
1
1
1
1
1
1
1
1
1
1
1
1
1
1
1
1
1
1
1
1
1
1
1
1
1
1
1
1
1
1
1
1
1
1
1
1
1
1
1
1
1
1
1
1
1
1
1
1
1
1
1
1
1
1
1
1
1
1
1
1
1
1
1
1
1
1
1
1
1
1
1
1
1
1
1
1
1
1
1
1
1
1
1
1
1
1
1
1
1
1
1
1
1
1
1
1
1
1
1
1
1
1
1
1
1
1
1
1
1
1
1
1
1
1
1
1
1
1
1
1
1
1
1
1
1
1
1
1
1
1
1
1
1
1
1
1
1
1
1
1
1
1
1
1
1
1
1
1
1
1
1
1
1
1

POINT_DATA 343
FIELD FieldData 3

ExternalForceID_(#) 1 343 int
0
1
2
3
4
5
6
7
8
9
10
11
12
13
14
15
16
17
18
19
20
21
22
23
24
25
26
27
28
29
30
31
32
33
34
35
36
37
38
39
40
41
42
43
44
45
46
47
48
49
50
51
52
53
54
55
56
57
58
59
60
61
62
63
64
65
66
67
68
69
70
71
72
73
74
75
76
77
78
79
80
81
82
83
84
85
86
87
88
89
90
91
92
93
94
95
96
97
98
99
100
101
102
103
104
105
106
107
108
109
110
111
112
113
114
115
116
117
118
119
120
121
122
123
124
125
126
127
128
129
130
131
132
133
134
135
136
137
138
139
140
141
142
143
144
145
146
147
148
149
150
151
152
153
154
155
156
157
158
159
160
161
162
163
164
165
166
167
168
169
170
171
172
173
174
175
176
177
178
179
180
181
182
183
184
185
186
187
188
189
190
191
192
193
194
195
196
197
198
199
200
201
202
203
204
205
206
207
208
209
210
211
212
213
214
215
216
217
218
219
220
221
222
223
224
225
226
227
228
229
230
231
232
233
234
235
236
237
238
239
240
241
242
243
244
245
246
247
248
249
250
251
252
253
254
255
256
257
258
259
260
261
262
263
264
265
266
267
268
269
270
271
272
273
274
275
276
277
278
279
280
281
282
283
284
285
286
287
288
289
290
291
292
293
294
295
296
297
298
299
300
301
302
303
304
305
306
307
308
309
310
311
312
313
314
315
316
317
318
319
320
321
322
323
324
325
326
327
328
329
330
331
332
333
334
335
336
337
338
339
340
341
342

ExternalForceType_(0/1/2/3/4) 1 343 int
0
0
0
0
0
0
0
0
0
0
0
0
0
0
0
0
0
0
0
0
0
0
0
0
0
0
0
0
0
0
0
0
0
0
0
0
0
0
0
0
0
0
0
0
0
0
0
0
0
0
0
0
0
0
0
0
0
0
0
0
0
0
0
0
0
0
0
0
0
0
0
0
0
0
0
0
0
0
0
0
0
0
0
0
0
0
0
0
0
0
0
0
0
0
0
0
0
0
0
0
0
0
0
0
0
0
0
0
0
0
0
0
0
0
0
0
0
0
0
0
0
0
0
0
0
0
0
0
0
0
0
0
0
0
0
0
0
0
0
0
0
0
0
0
0
0
0
0
0
0
0
0
0
0
0
0
0
0
0
0
0
0
0
0
0
0
0
0
0
0
0
0
0
0
0
0
0
0
0
0
0
0
0
0
0
0
0
0
0
0
0
0
0
0
0
0
0
0
0
0
0
0
0
0
0
0
0
0
0
0
0
0
0
0
0
0
0
0
0
0
0
0
0
0
0
0
0
0
0
0
0
0
0
0
0
0
0
0
0
0
0
0
0
0
0
0
0
0
0
0
0
0
0
0
0
0
0
0
0
0
0
0
0
0
0
0
0
0
0
0
0
0
0
0
0
0
0
0
0
0
0
0
0
0
0
0
0
0
0
0
0
0
0
0
0
0
0
0
0
0
0
0
0
0
0
0
0
0
0
0
0
0
0
0
0
0
0
0
0
0
0
0
0
0
0
0
0
0
0
0
0
0
0
0
0
0
0
0
0
0
0
0
0

ExternalForce_(N) 3 343 double
0 -3.09568e-05 0
0 -0.000138619 0
0 -2.16714e-05 0
0 -0.000168226 0
0 -8.26002e-05 0
0 -8.9203e-05 0
0 -9.74165e-05 0
0 -7.37906e-05 0
0 -6.68156e-05 0
0 -5.47617e-05 0
0 -3.04981e-05 0
0 -0.000105531 0
0 -4.77758e-05 0
0 -0.000161821 0
0 -2.96713e-05 0
0 -7.9067e-05 0
0 -6.57564e-05 0
0 -0.000106704 0
0 -4.11017e-05 0
0 -8.006e-05 0
0 -6.02474e-05 0
0 -0.000115662 0
0 -2.18875e-05 0
0 -4.17098e-05 0
0 -0.000107827 0
0 -7.27379e-05 0
0 -4.13856e-05 0
0 -3.85027e-05 0
0 -3.029e-05 0
0 -0.000128774 0
0 -7.57947e-05 0
0 -0.000162261 0
0 -0.000116775 0
0 -7.15802e-05 0
0 -3.74431e-05 0
0 -0.000108892 0
0 -3.74072e-05 0
0 -0.000136493 0
0 -6.25303e-05 0
0 -7.85756e-05 0
0 -7.52544e-05 0
0 -0.000116589 0
0 -0.000160874 0
0 -2.73339e-05 0
0 -8.7662e-05 0
0 -2.53184e-05 0
0 -7.42972e-05 0
0 -4.15199e-05 0
0 -0.000128792 0
0 -3.72945e-05 0
0 -2.72189e-05 0
0 -7.03157e-05 0
0 -0.000119003 0
0 -5.02041e-05 0
0 -8.04153e-05 0
0 -4.4939e-05 0
0 -2.74192e-05 0
0 -3.19929e-05 0
0 -4.04607e-05 0
0 -2.07889e-05 0
0 -3.28809e-05 0
0 -3.54797e-05 0
0 -0.000153858 0
0 -7.19739e-05 0
0 -8.09026e-05 0
0 -4.90862e-05 0
0 -2.77255e-05 0
0 -7.06591e-05 0
0 -3.20606e-05 0
0 -4.10794e-05 0
0 -1.98932e-05 0
0 -2.37551e-05 0
0 -3.0591e-05 0
0 -5.86107e-05 0
0 -5.75946e-05 0
0 -4.01595e-05 0
0 -5.35099e-05 0
0 -2.24477e-05 0
0 -4.41213e-05 0
0 -4.29866e-05 0
0 -4.42325e-05 0
0 -4.30889e-05 0
0 -4.19155e-05 0
0 -5.21923e-05 0
0 -1.5029e-05 0
0 -2.34331e-05 0
0 -1.9903e-05 0
0 -4.30461e-05 0
0 -3.11931e-05 0
0 -3.08326e-05 0
0 -4.52797e-05 0
0 -5.7648e-05 0
0 -8.02544e-05 0
0 -2.43623e-05 0
0 -0.000150893 0
0 -3.43039e-05 0
0 -7.21258e-05 0
0 -1.97489e-05 0
0 -2.00202e-05 0
0 -7.83017e-05 0
0 -4.32908e-05 0
0 -7.00326e-05 0
0 -1.17841e-05 0
0 -4.93779e-05 0
0 -1.58193e-05 0
0 -4.04762e-05 0
0 -8.57147e-05 0
0 -4.2953e-05 0
0 -7.82027e-05 0
0 -2.09499e-05 0
0 -3.31713e-05 0
0 -9.30599e-05 0
0 -7.26197e-05 0
0 -1.76801e-05 0
0 -2.06228e-05 0
0 -7.8371e-05 0
0 -1.84411e-05 0
0 -7.30662e-05 0
0 -4.11806e-05 0
0 -2.3265e-05 0
0 -4.23503e-05 0
0 -5.94919e-05 0
0 -4.22718e-05 0
0 -2.12723e-05 0
0 -1.86252e-05 0
0 -1.77849e-05 0
0 -3.82356e-05 0
0 -2.39658e-05 0
0 -1.62481e-05 0
0 -7.86148e-05 0
0 -1.61387e-05 0
0 -2.34763e-05 0
0 -2.95637e-05 0
0 -2.93742e-05 0
0 -1.33947e-05 0
0 -1.83735e-05 0
0 -2.05639e-05 0
0 -1.91062e-05 0
0 -1.84053e-05 0
0 -6.25793e-05 0
0 -4.49914e-05 0
0 -1.98914e-05 0
0 -1.58922e-05 0
0 -2.367e-05 0
0 -3.81266e-05 0
0 -4.36518e-05 0
0 -2.25472e-05 0
0 -0.000115119 0
0 -3.05886e-05 0
0 -1.32828e-05 0
0 -3.38507e-05 0
0 -1.78391e-05 0
0 -2.88237e-05 0
0 -1.34771e-05 0
0 -2.36876e-05 0
0 -2.06453e-05 0
0 -2.58912e-05 0
0 -2.10097e-05 0
0 -1.7602e-05 0
0 -3.13896e-05 0
0 -1.34386e-05 0
0 -2.38863e-05 0
0 -2.04203e-05 0
0 -1.33426e-05 0
0 -2.13076e-05 0
0 -1.86316e-05 0
0 -3.10974e-05 0
0 -2.56228e-05 0
0 -2.33161e-05 0
0 -1.57181e-05 0
0 -1.87061e-05 0
0 -5.38771e-05 0
0 -1.84308e-05 0
0 -3.08341e-05 0
0 -2.91652e-05 0
0 -1.16203e-05 0
0 -1.85667e-05 0
0 -2.00287e-05 0
0 -2.68375e-05 0
0 -2.37799e-05 0
0 -3.16945e-05 0
0 -3.13676e-05 0
0 -3.15313e-05 0
0 -1.90796e-05 0
0 -1.58134e-05 0
0 -1.83326e-05 0
0 -3.16308e-05 0
0 -2.07128e-05 0
0 -2.91276e-05 0
0 -6.03597e-05 0
0 -2.26581e-05 0
0 -2.35174e-05 0
0 -2.33506e-05 0
0 -2.59482e-05 0
0 -1.63393e-05 0
0 -1.78912e-05 0
0 -2.02658e-05 0
0 -5.62379e-05 0
0 -2.04507e-05 0
0 -2.14176e-05 0
0 -2.38895e-05 0
0 -3.05955e-05 0
0 -3.11287e-05 0
0 -2.01544e-05 0
0 -1.92198e-05 0
0 -2.99909e-05 0
0 -6.32085e-05 0
0 -2.04829e-05 0
0 -2.67435e-05 0
0 -2.11611e-05 0
0 -1.83262e-05 0
0 -1.96474e-05 0
0 -2.0699e-05 0
0 -2.83503e-05 0
0 -2.27807e-05 0
0 -2.35234e-05 0
0 -1.93874e-05 0
0 -6.29086e-05 0
0 -2.12117e-05 0
0 -3.22943e-05 0
0 -2.06229e-05 0
0 -2.61501e-05 0
0 -1.90721e-05 0
0 -2.86319e-05 0
0 -2.53212e-05 0
0 -2.07681e-05 0
0 -2.05553e-05 0
0 -1.88077e-05 0
0 -6.92631e-05 0
0 -2.20924e-05 0
0 -2.02457e-05 0
0 -6.16224e-05 0
0 -2.08117e-05 0
0 -2.85397e-05 0
0 -2.08875e-05 0
0 -6.32617e-05 0
0 -1.39008e-05 0
0 -2.0289e-05 0
0 -6.45558e-05 0
0 -2.47785e-05 0
0 -2.35177e-05 0
0 -7.28089e-06 0
0 -2.18143e-05 0
0 -6.93323e-06 0
0 -6.87344e-06 0
0 -8.76768e-06 0
0 -2.48719e-05 0
0 -2.22231e-05 0
0 -1.31068e-05 0
0 -7.69816e-06 0
0 -2.27889e-05 0
0 -5.95166e-06 0
0 -6.55579e-06 0
0 -6.71305e-06 0
0 -2.46468e-05 0
0 -2.27228e-05 0
0 -7.6878e-06 0
0 -6.67903e-06 0
0 -6.10861e-05 0
0 -6.6189e-06 0
0 -6.52665e-06 0
0 -6.87836e-06 0
0 -1.78856e-05 0
0 -1.87072e-05 0
0 -6.73674e-06 0
0 -6.91401e-06 0
0 -1.82903e-05 0
0 -2.2423e-05 0
0 -6.67521e-06 0
0 -7.02401e-06 0
0 -1.78908e-05 0
0 -5.89658e-06 0
0 -1.98938e-05 0
0 -7.3162e-06 0
0 -5.63509e-06 0
0 -1.76631e-05 0
0 -1.42638e-05 0
0 -2.22707e-05 0
0 -1.77204e-05 0
0 -2.11264e-05 0
0 -1.75686e-05 0
0 -1.76047e-05 0
0 -6.69346e-06 0
0 -2.20467e-05 0
0 -1.42479e-05 0
0 -1.76144e-05 0
0 -6.84615e-06 0
0 -6.12404e-06 0
0 -6.50125e-06 0
0 -1.41879e-05 0
0 -1.37476e-05 0
0 -2.11168e-05 0
0 -1.79377e-05 0
0 -1.37282e-05 0
0 -1.41198e-05 0
0 -2.15061e-05 0
0 -6.84475e-06 0
0 -1.74349e-05 0
0 -1.75758e-05 0
0 -6.41828e-06 0
0 -7.20025e-06 0
0 -2.30432e-05 0
0 -6.96894e-06 0
0 -6.44499e-06 0
0 -6.14414e-06 0
0 -2.14766e-05 0
0 -6.00855e-06 0
0 -5.92427e-06 0
0 -5.81567e-06 0
0 -5.02303e-06 0
0 -5.01945e-06 0
0 -4.85271e-06 0
0 -4.87573e-06 0
0 -4.8684e-06 0
0 -5.22951e-06 0
0 -4.84801e-06 0
0 -4.88396e-06 0
0 -4.77612e-06 0
0 -4.81304e-06 0
0 -4.85251e-06 0
0 -4.8555e-06 0
0 -4.82575e-06 0
0 -4.80313e-06 0
0 -4.86923e-06 0
0 -4.85781e-06 0
0 -4.73027e-06 0
0 -1.08748e-05 0
0 -5.22863e-06 0
0 -5.34413e-06 0
0 -5.26459e-06 0
0 -5.05624e-06 0
0 -4.92238e-06 0
0 -5.43253e-06 0
0 -5.43253e-06 0
0 -5.43253e-06 0
0 -5.43253e-06 0
0 -5.43253e-06 0
0 -5.43253e-06 0
0 -5.40321e-06 0
0 -5.40321e-06 0
0 -7.3113e-06 0
0 -6.98147e-06 0
0 -4.8949e-06 0

