# vtk DataFile Version 4.2
vtk output
ASCII
DATASET UNSTRUCTURED_GRID

POINTS 343 double
0.00112207 0.00419511 6.85079e-08
0.00217004 0.00498316 0.00217509
0 0.00419538 0.00112517
0.00193096 0.00195505 0.00194192
0.00517601 0.00241248 0.00503008
0.00517709 0.00383488 0.00639499
0.00762658 0.00478592 0.00499388
0.00622546 0.00485739 0.00368885
0.00684524 0.00329764 0.00690918
0.00499204 0.00499677 0.00499788
0.00419135 0.00112252 0.0099966
0.0052912 0.00208634 0.00790088
0.0042019 -2.76518e-06 0.00831507
0.00201489 0.00200301 0.0080329
0.00429498 0.00253675 0.00999648
0.00695793 0.00645498 0.00694202
0.0064132 0.00618946 0.00517959
0.0022625 0.00218544 0.00514579
0 0.00143586 0.00417514
0.00159496 0.0034664 0.00403699
0.00684219 0.00320319 0.00315794
0.00775635 0.00222508 0.00505857
0 0.00270918 0.00154168
0.00416166 0.00143304 -9.66466e-07
0.00501236 0.00219351 0.00219581
0.0039629 0.00352962 0.00160177
0.00134738 -4.04392e-07 0.00405986
0.00419037 -3.14718e-06 0.00168666
0.00262262 0.00695266 -2.37183e-07
0.00193566 0.00805312 0.00194467
0.0040842 0.00625047 0.00164376
0.0080027 0.00799662 0.00799035
0.00797307 0.0048268 0.00801536
0.00839094 0.00609165 0.0059414
0.00999454 0.0088414 0.00418394
0.00757318 0.00764536 0.0049588
0.00855725 0.00999189 0.00416059
0.00796883 0.00798183 0.00201129
0.00353983 0.0030388 0.00695844
0.00444321 0.00366536 0.00832151
0.00389875 0.00160404 0.00596782
0.00500407 0.00767257 0.00767388
0.0019887 0.00800844 0.00798947
0.00282328 0.00999858 0.00712677
0.00391265 0.00840218 0.00595672
0 0.00695361 0.00262895
0.00164564 0.00623968 0.00408775
0 0.0040177 0.00850214
0.00231551 0.00498637 0.00766116
0.0014343 0.00417478 0.00999986
0.00717872 0.0071267 0.00999153
0.00612165 0.00597702 0.00841283
0.00205011 0.00794186 0.00474166
0.00304258 0.0069441 0.00646718
0.00158664 0.00607867 0.00592586
0.00999826 0.00580011 0.00830455
0 0.00718191 0.00711644
0.00158304 0.00577386 -1.71672e-08
0 0.00577432 0.00158701
0.00999771 0.00717345 0.00710448
0.00287207 0.00335078 0.00999843
0.00998608 0.00142743 0.00416577
0.00804474 0.00195583 0.00197406
0.00839645 0.00351505 0.0039923
0.0037309 0.00165131 0.00412732
0.00150716 0.00999972 0.00581497
0.00281669 -1.46526e-06 0.00712703
0.00611741 0.00417811 0.00837133
0.00999252 0.00726541 0.00418616
0.00854591 -7.15608e-06 0.00416103
0.00334169 0.00287181 -5.24379e-07
0.00270676 0.00154054 0.00999852
0.00282398 -1.70511e-06 0.00283149
0.00480101 0.00519778 0.00755157
0.00315957 0.00314793 0.00316669
0 0.00849157 0.00581511
0.00486733 0.00367388 0.00378435
0.00153699 0.00270886 7.51765e-10
0.00580021 0.00832188 0.00999389
0.00598005 0.00999544 0.00850033
0.00421012 0.00999729 0.00831508
0.00401759 0.00850148 0.00999677
0.00999696 0.0084827 0.00580418
0.00314504 0.00683488 0.0031502
0 0.00748929 0.00137438
0.00137141 0.00748904 3.44754e-08
0 0.00287343 0.00335182
0 0.00580816 0.00831736
0 0.00429792 0.00253898
0.00253183 0.00429696 -1.96836e-07
0.00143448 0.00581939 0.00999986
0.00517497 0.00647297 0.00639753
0.00360422 0.00651105 0.00823228
0.00694733 0.00262264 0.00999207
0.00801572 0.00195246 0.00802699
0.00695509 -5.77468e-06 0.00307787
0.00600889 0.00166036 0.00360974
0.0099862 0.00286517 0.00334302
0 0.00140616 0.00256446
0.00636982 0.00822372 0.00641641
0.00580221 0.00143111 -2.06672e-06
0.00602425 0.00354816 0.0016003
0.00315209 0.00999836 0.00582433
0.00855481 0.00999205 0.005825
0.00255561 0.00140486 -2.43466e-07
0.00596031 -4.76314e-06 0.00149149
0.00627346 0.00828361 0.00361383
0.00854347 -7.0721e-06 0.00582524
0.00619807 0.00166877 0.00636089
0.00140409 0.00256417 0.00999989
0.00710319 0.00717652 -3.7986e-06
0.00515839 0.00768696 0.00216679
0.00593221 0.00608977 0.00159905
0 0.00686719 0.00578184
0.0099834 0.00139761 0.0025562
0.00177317 0.00361027 0.00640762
0.00999153 0.00847783 0.00261502
0.00840334 0.00618275 0.00412602
0.00597047 0.00999506 0.00149094
0.00695984 -5.44153e-06 0.00692056
0.009989 0.00142715 0.00580892
0.00838923 0.00356693 0.00605285
0.00150428 -4.41098e-07 0.00581507
0 0.0013659 0.00748679
0.00136608 -3.03226e-07 0.0075289
0.00999482 0.00685865 0.00577102
0.00580456 0.00848724 -2.50033e-06
0 0.0075208 0.00859127
0.00136524 0.00748669 0.00999976
0.00422542 0.00820347 0.00362704
0.00859075 0.00999208 0.00750252
0.0100004 0.00862137 0.00751405
0.00577024 0.00158303 0.00999404
0.00725722 0.00418305 0.00999146
0 0.0057735 0.00666667
0.00136872 0.00999968 0.00752885
0 0.00863025 0.00752641
0.00856993 -7.35266e-06 0.00250131
0.00998956 0.00694476 0.00262034
0.00844748 0.00633535 0.00215702
0.00850933 0.00581741 0.00998912
0.00748495 0.00136862 0.00999095
0.00857934 -7.04968e-06 0.0075027
0.009992 0.00135766 0.00747465
0 0.00143551 0.00581971
0.0059697 -4.36684e-06 0.00850047
0.00420181 -3.01979e-06 0.00339855
0.00792089 0.00470173 0.00202944
0.0099864 0.00428976 0.00253072
0.00422562 0.00999718 0.00666454
0.0028304 0.00999866 0.00283144
0.00130862 -4.30653e-07 0.00241819
0 0.00727418 0.00419576
0.0099952 0.00576547 0.00665511
0.00696617 0.00999391 0.00307731
0.00750929 0.00863123 0.00999087
0 0.00574334 0.00336387
0 0.0043297 0.00416652
0.00686912 0.00577963 0.00999209
0.00999268 0.00301415 0.00690357
0.00421692 -2.83134e-06 0.00666475
0.00247758 0.00999875 0.00861068
0.00746696 0.00135977 -3.81948e-06
0.00577434 0.00666327 0.00999389
0.0100009 0.00751236 0.00857826
0.00861021 0.0075468 0.00998886
0.00689767 0.00301705 -3.25651e-06
0.00335536 0.00574199 -5.60429e-07
0.00751436 0.00862389 -4.45415e-06
0.00750605 0.00999301 0.00138258
0.00576974 0.00686343 -2.45088e-06
0.00696488 0.00636589 0.00302917
0.00749485 -6.43169e-06 0.00138336
0.00288346 0.00499836 0.00999831
0.00432983 0.00583152 0.00999621
0.00432808 0.0041647 0.00999623
0.00751746 0.00999348 0.00860742
0.00247171 -1.09655e-06 0.00861089
0.00998922 0.00573522 0.003355
0 0.00302218 0.00691532
0.00999662 0.00400982 0.00848924
0.00848405 0.00401095 -5.06511e-06
0.00998315 0.00270077 0.00153415
0 0.00244495 0.00857025
0.00244583 0.00856945 0.0099986
0.00750633 -5.96416e-06 0.00860749
0.00848417 0.00261738 0.00998914
0.00884993 0.00418714 0.00998844
0.00566786 0.00999566 0.00582973
0.00518108 0.00758055 0.00502981
0.0056379 0.00999561 0.00421229
0.00697074 0.00999414 0.00692039
0.00302224 0.00691437 0.00999801
0.00415522 0.00432762 -1.05869e-06
0.00282727 -1.7167e-06 0.00440406
0.00314504 -1.86995e-06 0.00582466
0.00998416 0.00418708 0.00111773
0.00363189 0.0083357 0.00158716
0.00998911 0.00432157 0.00415697
0.00665219 0.00576886 -3.11465e-06
0.00858134 0.00999171 0.00250059
0 0.00848692 0.00262374
0.00135013 0.00999978 0.00405984
0 0.00885053 0.00419359
0.00418596 0.00884781 -1.30108e-06
0.00419882 0.00999713 0.00168631
0.00498905 0.00478865 0.00237693
0.00720311 0.00451642 -3.62445e-06
0.00562783 -4.36539e-06 0.00421279
0.00565786 -4.28223e-06 0.00583003
0.0013113 0.00999979 0.00241807
0.00855043 0.00243792 -5.02755e-06
0.00999483 0.00451378 0.00720756
0.00711099 0.00999383 0.00499485
0.00574087 0.00336053 0.00999411
0.00244979 -1.45671e-06 0.00135622
0.0099951 0.00243694 0.00855732
0.00239173 0.00479062 0.0049995
0.00581871 0.00432637 -2.34127e-06
0.00830134 0.00580142 -5.10972e-06
0.00547848 0.00999596 0.0072164
0.00999209 0.0043221 0.00582247
0.00539654 0.00999581 0.00277319
0.00709992 -5.73968e-06 0.00499527
0.00283359 0.00999865 0.00440392
0 0.00452174 0.00721958
0.00452206 0.00721789 0.00999596
0.00546864 -3.9981e-06 0.00721644
0.00359733 0.00507248 0.00359566
0.00424866 0.00999716 0.00500655
0.00423979 -2.9111e-06 0.00500698
0.00366682 0.00521547 0.00617341
0 0.005744 0.00499998
0 0.00433013 0.00583333
0.0049881 0.00574119 -1.70888e-06
0.00497737 0.00633647 0.00355181
0.00538678 -4.21495e-06 0.0027736
0.00999209 0.00573602 0.00498973
0.0036862 0.00640636 0.00484297
0.00574312 0.00499687 0.00999402
0.0099865 0.00576601 0.00157928
0 0.00666667 0
0.00857725 0.00751357 -5.62873e-06
0.00332096 -2.39383e-06 -3.90477e-07
0 0.01 0.00666667
0.00500405 0.00999635 0.00999531
0 0.00288419 0.00499914
0.00998831 0.00748023 0.00136662
0.0099854 0.00665798 -7.50471e-06
0 0.005 0.01
0.00498475 0.00288104 -1.56961e-06
0 0.005 0
0.0099833 -8.5861e-06 0.00332465
0.0100009 0.00998996 0.00665491
0.0041867 0.00727195 -1.23112e-06
0.00998904 0.00287609 0.00498898
0.00498311 -4.04286e-06 -1.3667e-06
0 0 0.00666667
0.00379273 0.00361513 0.00522522
0.0049946 -3.81645e-06 0.00999503
0.00998912 -8.46555e-06 0.00665521
0 0 0.005
0.0087708 0.00999126 0.00121378
0.00998976 0.00877043 0.00121221
0.00998613 -8.53097e-06 0.00498992
0.00998359 0.00499148 -7.24858e-06
0.00121606 0.0012197 3.06868e-09
0 0.00122008 0.00122008
0 0.00333333 0.01
0 0.00666667 0.01
0.00876763 0.00877179 -5.98725e-06
0.00999496 0.00998966 0.00332404
0.00421052 0.00999717 0.00339832
0.0100027 0.00665847 0.00998604
0 0.00333333 0
0 0.00122008 0.00877992
0.00121728 -3.46116e-07 0.00877968
0.00121797 0.0012198 0.00999995
0.00878369 0.00999187 0.00876893
0.00121963 0.00877974 0.0099998
0 0.00877992 0.00877992
0.0100029 0.00877101 0.00876673
0.00665694 0.00999391 -3.74114e-06
0.00998107 0.00121143 0.00121278
0.00121975 0.00999965 0.00877975
0.00878439 0.00877257 0.00998849
0.0100007 0.0049921 0.00998606
0 0 0.00333333
0.00664647 -5.55054e-06 -2.87049e-06
0.00875932 -7.59076e-06 0.00121459
0.00120733 -4.70363e-07 0.00121171
0 0.00877992 0.00122008
0.00121773 0.00877957 3.20349e-08
0.00120984 0.00999971 0.00121142
0.0099942 0.00121179 0.00876676
0.00877579 0.00121298 0.00998846
0.00666099 -5.37485e-06 0.00999211
0.00875881 0.00121264 -5.20714e-06
0.00877225 -7.25178e-06 0.00876894
0.00998174 0.00332491 -7.05472e-06
0.00333597 0.00999804 0.00999774
0.00245557 0.00999893 0.00135595
0.00667166 0.00999457 0.00999244
0.00999887 0.00332548 0.0099861
0 0.01 0.005
0.00261843 0.00848574 -3.17845e-07
0.00999782 0.00998981 0.00498968
0 0.01 0.00333333
0 0.00166667 0
0.0099806 -8.73677e-06 0.00165915
0 0.00166667 0.01
0 0.00833333 0
0.00998763 0.00832387 -7.51353e-06
0.00999218 -8.45642e-06 0.00832041
0.00999225 0.00998958 0.00165842
0.0100039 0.00999008 0.00832033
0.00166738 0.0099992 0.00999942
0 0.01 0.00833333
0.00832278 0.00999166 -5.71173e-06
0.0083113 -7.29155e-06 -4.64394e-06
0.00832784 -7.00086e-06 0.00998908
0.00833919 0.0099924 0.00998936
0 0 0.00833333
0.0100047 0.00832467 0.00998603
0.00166023 -9.39105e-07 -4.67728e-08
0 0 0.00166667
0.00332818 0.00999795 -8.06527e-07
0.00999706 0.00165839 0.00998604
0.00997992 0.00165794 -6.92961e-06
0.00166336 -7.08717e-07 0.00999949
0.00166421 0.00999932 -1.71703e-07
0 0.01 0.00166667
0.0100069 0.00999027 0.00998608
0 0 0.01
0.00998979 0.00998942 -7.76147e-06
0.00999524 -8.60419e-06 0.0099859
0 0.01 0.01
0.00997813 -8.73087e-06 -6.8223e-06
0 0.01 0
0 0 0
0.00499225 0.00999605 -2.03639e-06
0.00332902 -2.29521e-06 0.00999744
0 0.00833333 0.01

CELLS 343 686
1 0
1 1
1 2
1 3
1 4
1 5
1 6
1 7
1 8
1 9
1 10
1 11
1 12
1 13
1 14
1 15
1 16
1 17
1 18
1 19
1 20
1 21
1 22
1 23
1 24
1 25
1 26
1 27
1 28
1 29
1 30
1 31
1 32
1 33
1 34
1 35
1 36
1 37
1 38
1 39
1 40
1 41
1 42
1 43
1 44
1 45
1 46
1 47
1 48
1 49
1 50
1 51
1 52
1 53
1 54
1 55
1 56
1 57
1 58
1 59
1 60
1 61
1 62
1 63
1 64
1 65
1 66
1 67
1 68
1 69
1 70
1 71
1 72
1 73
1 74
1 75
1 76
1 77
1 78
1 79
1 80
1 81
1 82
1 83
1 84
1 85
1 86
1 87
1 88
1 89
1 90
1 91
1 92
1 93
1 94
1 95
1 96
1 97
1 98
1 99
1 100
1 101
1 102
1 103
1 104
1 105
1 106
1 107
1 108
1 109
1 110
1 111
1 112
1 113
1 114
1 115
1 116
1 117
1 118
1 119
1 120
1 121
1 122
1 123
1 124
1 125
1 126
1 127
1 128
1 129
1 130
1 131
1 132
1 133
1 134
1 135
1 136
1 137
1 138
1 139
1 140
1 141
1 142
1 143
1 144
1 145
1 146
1 147
1 148
1 149
1 150
1 151
1 152
1 153
1 154
1 155
1 156
1 157
1 158
1 159
1 160
1 161
1 162
1 163
1 164
1 165
1 166
1 167
1 168
1 169
1 170
1 171
1 172
1 173
1 174
1 175
1 176
1 177
1 178
1 179
1 180
1 181
1 182
1 183
1 184
1 185
1 186
1 187
1 188
1 189
1 190
1 191
1 192
1 193
1 194
1 195
1 196
1 197
1 198
1 199
1 200
1 201
1 202
1 203
1 204
1 205
1 206
1 207
1 208
1 209
1 210
1 211
1 212
1 213
1 214
1 215
1 216
1 217
1 218
1 219
1 220
1 221
1 222
1 223
1 224
1 225
1 226
1 227
1 228
1 229
1 230
1 231
1 232
1 233
1 234
1 235
1 236
1 237
1 238
1 239
1 240
1 241
1 242
1 243
1 244
1 245
1 246
1 247
1 248
1 249
1 250
1 251
1 252
1 253
1 254
1 255
1 256
1 257
1 258
1 259
1 260
1 261
1 262
1 263
1 264
1 265
1 266
1 267
1 268
1 269
1 270
1 271
1 272
1 273
1 274
1 275
1 276
1 277
1 278
1 279
1 280
1 281
1 282
1 283
1 284
1 285
1 286
1 287
1 288
1 289
1 290
1 291
1 292
1 293
1 294
1 295
1 296
1 297
1 298
1 299
1 300
1 301
1 302
1 303
1 304
1 305
1 306
1 307
1 308
1 309
1 310
1 311
1 312
1 313
1 314
1 315
1 316
1 317
1 318
1 319
1 320
1 321
1 322
1 323
1 324
1 325
1 326
1 327
1 328
1 329
1 330
1 331
1 332
1 333
1 334
1 335
1 336
1 337
1 338
1 339
1 340
1 341
1 342

CELL_TYPES 343
1
1
1
1
1
1
1
1
1
1
1
1
1
1
1
1
1
1
1
1
1
1
1
1
1
1
1
1
1
1
1
1
1
1
1
1
1
1
1
1
1
1
1
1
1
1
1
1
1
1
1
1
1
1
1
1
1
1
1
1
1
1
1
1
1
1
1
1
1
1
1
1
1
1
1
1
1
1
1
1
1
1
1
1
1
1
1
1
1
1
1
1
1
1
1
1
1
1
1
1
1
1
1
1
1
1
1
1
1
1
1
1
1
1
1
1
1
1
1
1
1
1
1
1
1
1
1
1
1
1
1
1
1
1
1
1
1
1
1
1
1
1
1
1
1
1
1
1
1
1
1
1
1
1
1
1
1
1
1
1
1
1
1
1
1
1
1
1
1
1
1
1
1
1
1
1
1
1
1
1
1
1
1
1
1
1
1
1
1
1
1
1
1
1
1
1
1
1
1
1
1
1
1
1
1
1
1
1
1
1
1
1
1
1
1
1
1
1
1
1
1
1
1
1
1
1
1
1
1
1
1
1
1
1
1
1
1
1
1
1
1
1
1
1
1
1
1
1
1
1
1
1
1
1
1
1
1
1
1
1
1
1
1
1
1
1
1
1
1
1
1
1
1
1
1
1
1
1
1
1
1
1
1
1
1
1
1
1
1
1
1
1
1
1
1
1
1
1
1
1
1
1
1
1
1
1
1
1
1
1
1
1
1
1
1
1
1
1
1
1
1
1
1
1
1
1
1
1
1
1
1
1
1
1
1
1
1
1
1
1
1
1
1

POINT_DATA 343
FIELD FieldData 3

ExternalForceID_(#) 1 343 int
0
1
2
3
4
5
6
7
8
9
10
11
12
13
14
15
16
17
18
19
20
21
22
23
24
25
26
27
28
29
30
31
32
33
34
35
36
37
38
39
40
41
42
43
44
45
46
47
48
49
50
51
52
53
54
55
56
57
58
59
60
61
62
63
64
65
66
67
68
69
70
71
72
73
74
75
76
77
78
79
80
81
82
83
84
85
86
87
88
89
90
91
92
93
94
95
96
97
98
99
100
101
102
103
104
105
106
107
108
109
110
111
112
113
114
115
116
117
118
119
120
121
122
123
124
125
126
127
128
129
130
131
132
133
134
135
136
137
138
139
140
141
142
143
144
145
146
147
148
149
150
151
152
153
154
155
156
157
158
159
160
161
162
163
164
165
166
167
168
169
170
171
172
173
174
175
176
177
178
179
180
181
182
183
184
185
186
187
188
189
190
191
192
193
194
195
196
197
198
199
200
201
202
203
204
205
206
207
208
209
210
211
212
213
214
215
216
217
218
219
220
221
222
223
224
225
226
227
228
229
230
231
232
233
234
235
236
237
238
239
240
241
242
243
244
245
246
247
248
249
250
251
252
253
254
255
256
257
258
259
260
261
262
263
264
265
266
267
268
269
270
271
272
273
274
275
276
277
278
279
280
281
282
283
284
285
286
287
288
289
290
291
292
293
294
295
296
297
298
299
300
301
302
303
304
305
306
307
308
309
310
311
312
313
314
315
316
317
318
319
320
321
322
323
324
325
326
327
328
329
330
331
332
333
334
335
336
337
338
339
340
341
342

ExternalForceType_(0/1/2/3/4) 1 343 int
0
0
0
0
0
0
0
0
0
0
0
0
0
0
0
0
0
0
0
0
0
0
0
0
0
0
0
0
0
0
0
0
0
0
0
0
0
0
0
0
0
0
0
0
0
0
0
0
0
0
0
0
0
0
0
0
0
0
0
0
0
0
0
0
0
0
0
0
0
0
0
0
0
0
0
0
0
0
0
0
0
0
0
0
0
0
0
0
0
0
0
0
0
0
0
0
0
0
0
0
0
0
0
0
0
0
0
0
0
0
0
0
0
0
0
0
0
0
0
0
0
0
0
0
0
0
0
0
0
0
0
0
0
0
0
0
0
0
0
0
0
0
0
0
0
0
0
0
0
0
0
0
0
0
0
0
0
0
0
0
0
0
0
0
0
0
0
0
0
0
0
0
0
0
0
0
0
0
0
0
0
0
0
0
0
0
0
0
0
0
0
0
0
0
0
0
0
0
0
0
0
0
0
0
0
0
0
0
0
0
0
0
0
0
0
0
0
0
0
0
0
0
0
0
0
0
0
0
0
0
0
0
0
0
0
0
0
0
0
0
0
0
0
0
0
0
0
0
0
0
0
0
0
0
0
0
0
0
0
0
0
0
0
0
0
0
0
0
0
0
0
0
0
0
0
0
0
0
0
0
0
0
0
0
0
0
0
0
0
0
0
0
0
0
0
0
0
0
0
0
0
0
0
0
0
0
0
0
0
0
0
0
0
0
0
0
0
0
0
0
0
0
0
0
0
0
0
0
0
0
0
0
0
0
0
0
0
0
0
0
0
0
0

ExternalForce_(N) 3 343 double
0 -3.09568e-05 0
0 -0.000138619 0
0 -2.16714e-05 0
0 -0.000168226 0
0 -8.26002e-05 0
0 -8.9203e-05 0
0 -9.74165e-05 0
0 -7.37906e-05 0
0 -6.68156e-05 0
0 -5.47617e-05 0
0 -3.04981e-05 0
0 -0.000105531 0
0 -4.77758e-05 0
0 -0.000161821 0
0 -2.96713e-05 0
0 -7.9067e-05 0
0 -6.57564e-05 0
0 -0.000106704 0
0 -4.11017e-05 0
0 -8.006e-05 0
0 -6.02474e-05 0
0 -0.000115662 0
0 -2.18875e-05 0
0 -4.17098e-05 0
0 -0.000107827 0
0 -7.27379e-05 0
0 -4.13856e-05 0
0 -3.85027e-05 0
0 -3.029e-05 0
0 -0.000128774 0
0 -7.57947e-05 0
0 -0.000162261 0
0 -0.000116775 0
0 -7.15802e-05 0
0 -3.74431e-05 0
0 -0.000108892 0
0 -3.74072e-05 0
0 -0.000136493 0
0 -6.25303e-05 0
0 -7.85756e-05 0
0 -7.52544e-05 0
0 -0.000116589 0
0 -0.000160874 0
0 -2.73339e-05 0
0 -8.7662e-05 0
0 -2.53184e-05 0
0 -7.42972e-05 0
0 -4.15199e-05 0
0 -0.000128792 0
0 -3.72945e-05 0
0 -2.72189e-05 0
0 -7.03157e-05 0
0 -0.000119003 0
0 -5.02041e-05 0
0 -8.04153e-05 0
0 -4.4939e-05 0
0 -2.74192e-05 0
0 -3.19929e-05 0
0 -4.04607e-05 0
0 -2.07889e-05 0
0 -3.28809e-05 0
0 -3.54797e-05 0
0 -0.000153858 0
0 -7.19739e-05 0
0 -8.09026e-05 0
0 -4.90862e-05 0
0 -2.77255e-05 0
0 -7.06591e-05 0
0 -3.20606e-05 0
0 -4.10794e-05 0
0 -1.98932e-05 0
0 -2.37551e-05 0
0 -3.0591e-05 0
0 -5.86107e-05 0
0 -5.75946e-05 0
0 -4.01595e-05 0
0 -5.35099e-05 0
0 -2.24477e-05 0
0 -4.41213e-05 0
0 -4.29866e-05 0
0 -4.42325e-05 0
0 -4.30889e-05 0
0 -4.19155e-05 0
0 -5.21923e-05 0
0 -1.5029e-05 0
0 -2.34331e-05 0
0 -1.9903e-05 0
0 -4.30461e-05 0
0 -3.11931e-05 0
0 -3.08326e-05 0
0 -4.52797e-05 0
0 -5.7648e-05 0
0 -8.02544e-05 0
0 -2.43623e-05 0
0 -0.000150893 0
0 -3.43039e-05 0
0 -7.21258e-05 0
0 -1.97489e-05 0
0 -2.00202e-05 0
0 -7.83017e-05 0
0 -4.32908e-05 0
0 -7.00326e-05 0
0 -1.17841e-05 0
0 -4.93779e-05 0
0 -1.58193e-05 0
0 -4.04762e-05 0
0 -8.57147e-05 0
0 -4.2953e-05 0
0 -7.82027e-05 0
0 -2.09499e-05 0
0 -3.31713e-05 0
0 -9.30599e-05 0
0 -7.26197e-05 0
0 -1.76801e-05 0
0 -2.06228e-05 0
0 -7.8371e-05 0
0 -1.84411e-05 0
0 -7.30662e-05 0
0 -4.11806e-05 0
0 -2.3265e-05 0
0 -4.23503e-05 0
0 -5.94919e-05 0
0 -4.22718e-05 0
0 -2.12723e-05 0
0 -1.86252e-05 0
0 -1.77849e-05 0
0 -3.82356e-05 0
0 -2.39658e-05 0
0 -1.62481e-05 0
0 -7.86148e-05 0
0 -1.61387e-05 0
0 -2.34763e-05 0
0 -2.95637e-05 0
0 -2.93742e-05 0
0 -1.33947e-05 0
0 -1.83735e-05 0
0 -2.05639e-05 0
0 -1.91062e-05 0
0 -1.84053e-05 0
0 -6.25793e-05 0
0 -4.49914e-05 0
0 -1.98914e-05 0
0 -1.58922e-05 0
0 -2.367e-05 0
0 -3.81266e-05 0
0 -4.36518e-05 0
0 -2.25472e-05 0
0 -0.000115119 0
0 -3.05886e-05 0
0 -1.32828e-05 0
0 -3.38507e-05 0
0 -1.78391e-05 0
0 -2.88237e-05 0
0 -1.34771e-05 0
0 -2.36876e-05 0
0 -2.06453e-05 0
0 -2.58912e-05 0
0 -2.10097e-05 0
0 -1.7602e-05 0
0 -3.13896e-05 0
0 -1.34386e-05 0
0 -2.38863e-05 0
0 -2.04203e-05 0
0 -1.33426e-05 0
0 -2.13076e-05 0
0 -1.86316e-05 0
0 -3.10974e-05 0
0 -2.56228e-05 0
0 -2.33161e-05 0
0 -1.57181e-05 0
0 -1.87061e-05 0
0 -5.38771e-05 0
0 -1.84308e-05 0
0 -3.08341e-05 0
0 -2.91652e-05 0
0 -1.16203e-05 0
0 -1.85667e-05 0
0 -2.00287e-05 0
0 -2.68375e-05 0
0 -2.37799e-05 0
0 -3.16945e-05 0
0 -3.13676e-05 0
0 -3.15313e-05 0
0 -1.90796e-05 0
0 -1.58134e-05 0
0 -1.83326e-05 0
0 -3.16308e-05 0
0 -2.07128e-05 0
0 -2.91276e-05 0
0 -6.03597e-05 0
0 -2.26581e-05 0
0 -2.35174e-05 0
0 -2.33506e-05 0
0 -2.59482e-05 0
0 -1.63393e-05 0
0 -1.78912e-05 0
0 -2.02658e-05 0
0 -5.62379e-05 0
0 -2.04507e-05 0
0 -2.14176e-05 0
0 -2.38895e-05 0
0 -3.05955e-05 0
0 -3.11287e-05 0
0 -2.01544e-05 0
0 -1.92198e-05 0
0 -2.99909e-05 0
0 -6.32085e-05 0
0 -2.04829e-05 0
0 -2.67435e-05 0
0 -2.11611e-05 0
0 -1.83262e-05 0
0 -1.96474e-05 0
0 -2.0699e-05 0
0 -2.83503e-05 0
0 -2.27807e-05 0
0 -2.35234e-05 0
0 -1.93874e-05 0
0 -6.29086e-05 0
0 -2.12117e-05 0
0 -3.22943e-05 0
0 -2.06229e-05 0
0 -2.61501e-05 0
0 -1.90721e-05 0
0 -2.86319e-05 0
0 -2.53212e-05 0
0 -2.07681e-05 0
0 -2.05553e-05 0
0 -1.88077e-05 0
0 -6.92631e-05 0
0 -2.20924e-05 0
0 -2.02457e-05 0
0 -6.16224e-05 0
0 -2.08117e-05 0
0 -2.85397e-05 0
0 -2.08875e-05 0
0 -6.32617e-05 0
0 -1.39008e-05 0
0 -2.0289e-05 0
0 -6.45558e-05 0
0 -2.47785e-05 0
0 -2.35177e-05 0
0 -7.28089e-06 0
0 -2.18143e-05 0
0 -6.93323e-06 0
0 -6.87344e-06 0
0 -8.76768e-06 0
0 -2.48719e-05 0
0 -2.22231e-05 0
0 -1.31068e-05 0
0 -7.69816e-06 0
0 -2.27889e-05 0
0 -5.95166e-06 0
0 -6.55579e-06 0
0 -6.71305e-06 0
0 -2.46468e-05 0
0 -2.27228e-05 0
0 -7.6878e-06 0
0 -6.67903e-06 0
0 -6.10861e-05 0
0 -6.6189e-06 0
0 -6.52665e-06 0
0 -6.87836e-06 0
0 -1.78856e-05 0
0 -1.87072e-05 0
0 -6.73674e-06 0
0 -6.91401e-06 0
0 -1.82903e-05 0
0 -2.2423e-05 0
0 -6.67521e-06 0
0 -7.02401e-06 0
0 -1.78908e-05 0
0 -5.89658e-06 0
0 -1.98938e-05 0
0 -7.3162e-06 0
0 -5.63509e-06 0
0 -1.76631e-05 0
0 -1.42638e-05 0
0 -2.22707e-05 0
0 -1.77204e-05 0
0 -2.11264e-05 0
0 -1.75686e-05 0
0 -1.76047e-05 0
0 -6.69346e-06 0
0 -2.20467e-05 0
0 -1.42479e-05 0
0 -1.76144e-05 0
0 -6.84615e-06 0
0 -6.12404e-06 0
0 -6.50125e-06 0
0 -1.41879e-05 0
0 -1.37476e-05 0
0 -2.11168e-05 0
0 -1.79377e-05 0
0 -1.37282e-05 0
0 -1.41198e-05 0
0 -2.15061e-05 0
0 -6.84475e-06 0
0 -1.74349e-05 0
0 -1.75758e-05 0
0 -6.41828e-06 0
0 -7.20025e-06 0
0 -2.30432e-05 0
0 -6.96894e-06 0
0 -6.44499e-06 0
0 -6.14414e-06 0
0 -2.14766e-05 0
0 -6.00855e-06 0
0 -5.92427e-06 0
0 -5.81567e-06 0
0 -5.02303e-06 0
0 -5.01945e-06 0
0 -4.85271e-06 0
0 -4.87573e-06 0
0 -4.8684e-06 0
0 -5.22951e-06 0
0 -4.84801e-06 0
0 -4.88396e-06 0
0 -4.77612e-06 0
0 -4.81304e-06 0
0 -4.85251e-06 0
0 -4.8555e-06 0
0 -4.82575e-06 0
0 -4.80313e-06 0
0 -4.86923e-06 0
0 -4.85781e-06 0
0 -4.73027e-06 0
0 -1.08748e-05 0
0 -5.22863e-06 0
0 -5.34413e-06 0
0 -5.26459e-06 0
0 -5.05624e-06 0
0 -4.92238e-06 0
0 -5.43253e-06 0
0 -5.43253e-06 0
0 -5.43253e-06 0
0 -5.43253e-06 0
0 -5.43253e-06 0
0 -5.43253e-06 0
0 -5.40321e-06 0
0 -5.40321e-06 0
0 -7.3113e-06 0
0 -6.98147e-06 0
0 -4.8949e-06 0

