# vtk DataFile Version 4.2
vtk output
ASCII
DATASET UNSTRUCTURED_GRID

POINTS 343 double
0.00112256 0.00419498 7.67818e-08
0.00217127 0.00498274 0.00217516
0 0.00419538 0.00112517
0.00193066 0.0019546 0.00194201
0.00517376 0.00240799 0.00503054
0.00517709 0.00383117 0.00639527
0.00762995 0.00477739 0.00499485
0.00622854 0.00485186 0.00368963
0.00684452 0.00329036 0.00690974
0.00499426 0.00499356 0.00499824
0.00418758 0.00111885 0.00999669
0.00528796 0.00208143 0.00790106
0.00419645 -6.73494e-06 0.00831506
0.00201426 0.00200265 0.00803301
0.00429314 0.00253374 0.00999664
0.00696413 0.00644839 0.00694249
0.00641876 0.00618387 0.00518014
0.002262 0.00218487 0.00514581
0 0.00143586 0.00417514
0.00159518 0.00346624 0.00403694
0.00684221 0.00319568 0.00315904
0.00775394 0.00221515 0.00505965
0 0.00270918 0.00154168
0.00415981 0.00142924 -3.68335e-07
0.00501049 0.00218887 0.00219678
0.00396374 0.00352742 0.00160239
0.00134621 -6.18005e-07 0.00405989
0.00418586 -7.21084e-06 0.00168746
0.00262574 0.00695195 -5.42438e-09
0.00193796 0.00805286 0.00194475
0.00408819 0.00624871 0.00164436
0.00801324 0.00798758 0.00799093
0.00797601 0.00481761 0.00801597
0.00839785 0.00608158 0.00594237
0.0100103 0.00882719 0.00418552
0.00758335 0.00763719 0.00495962
0.00857431 0.00998077 0.00416168
0.00798116 0.0079726 0.00201275
0.00353922 0.00303712 0.00695852
0.00444289 0.00366279 0.00832169
0.00389583 0.00160117 0.00596801
0.00501011 0.00766919 0.00767405
0.00199056 0.00800812 0.00798941
0.00282859 0.00999735 0.00712664
0.00391827 0.00840003 0.00595677
0 0.00695361 0.00262895
0.00164679 0.00623941 0.00408777
0 0.0040177 0.00850214
0.00231657 0.00498592 0.00766115
0.00143469 0.00417457 0.00999983
0.00718608 0.00711953 0.00999178
0.00612591 0.00597204 0.00841311
0.00205215 0.00794159 0.00474165
0.00304515 0.00694331 0.00646717
0.00158759 0.00607847 0.00592586
0.0100053 0.00578612 0.00830556
0 0.00718191 0.00711644
0.00158437 0.00577359 6.10162e-09
0 0.00577432 0.00158701
0.0100084 0.00715949 0.00710567
0.00287198 0.00334973 0.00999852
0.00998346 0.00141174 0.00416765
0.0080427 0.00194499 0.00197582
0.00839774 0.00350422 0.00399371
0.00372829 0.00164862 0.00412759
0.00150945 0.00999965 0.00581491
0.00281268 -3.30564e-06 0.00712713
0.00611807 0.00417285 0.00837163
0.0100044 0.00725134 0.00418781
0.00853879 -1.98859e-05 0.00416259
0.00334228 0.00287014 -1.755e-07
0.00270495 0.00153918 0.0099986
0.00282028 -3.70859e-06 0.00283164
0.00480286 0.00519499 0.00755175
0.00315955 0.00314672 0.00316684
0 0.00849157 0.00581511
0.0048676 0.00367048 0.00378487
0.00153724 0.00270873 -2.24282e-09
0.0058081 0.00831698 0.00999394
0.00599158 0.00998987 0.0085006
0.0042178 0.00999439 0.00831515
0.00402292 0.00849898 0.00999667
0.0100113 0.00846865 0.00580549
0.00314792 0.00683395 0.00315036
0 0.00748929 0.00137438
0.00137302 0.00748902 1.56387e-08
0 0.00287343 0.00335182
0 0.00580816 0.00831736
0 0.00429792 0.00253898
0.0025335 0.0042962 2.45255e-09
0.00143523 0.00581927 0.00999983
0.0051795 0.00646958 0.00639776
0.00360683 0.00650989 0.00823228
0.00694469 0.00261481 0.00999247
0.00801193 0.00194193 0.00802762
0.00694838 -1.50036e-05 0.00307923
0.00600554 0.00165381 0.00361071
0.00998737 0.00285014 0.00334505
0 0.00140616 0.00256446
0.00637891 0.00821787 0.00641672
0.00579937 0.00142452 -8.59274e-07
0.00602503 0.00354236 0.00160151
0.003158 0.0099967 0.0058244
0.0085713 0.009981 0.00582586
0.00255467 0.00140333 -1.8133e-08
0.00595428 -1.19622e-05 0.00149288
0.00628334 0.00827782 0.00361458
0.00853591 -1.97001e-05 0.00582641
0.00619409 0.001662 0.00636133
0.00140388 0.0025641 0.00999988
0.00711332 0.00716917 -2.31398e-06
0.00516601 0.00768316 0.0021675
0.00593818 0.00608507 0.00160013
0 0.00686719 0.00578184
0.00998119 0.0013818 0.0025584
0.00177338 0.00361001 0.00640766
0.0100069 0.0084636 0.00261693
0.00841102 0.00617254 0.00412729
0.00598388 0.00998914 0.00149185
0.00695207 -1.45792e-05 0.00692107
0.0099859 0.00141155 0.00581044
0.00838997 0.00355622 0.00605389
0.00150309 -7.4799e-07 0.00581507
0 0.0013659 0.00748679
0.00136502 -5.82396e-07 0.00752887
0.0100052 0.00684466 0.00577238
0.00581537 0.00848208 -1.41186e-06
0 0.0075208 0.00859127
0.00136627 0.00748662 0.00999971
0.00423169 0.00820091 0.00362727
0.00860682 0.00998091 0.00750323
0.0100146 0.00860738 0.00751508
0.0057657 0.00157691 0.00999427
0.00725797 0.0041754 0.00999187
0 0.0057735 0.00666667
0.00137068 0.00999957 0.00752887
0 0.00863025 0.00752641
0.00856328 -2.03596e-05 0.00250328
0.0100011 0.00693063 0.0026223
0.00845624 0.00632491 0.00215864
0.00851469 0.00580715 0.00998966
0.00747972 0.00135885 0.00999139
0.00857129 -1.98824e-05 0.00750344
0.00998821 0.00134204 0.00747587
0 0.00143551 0.00581971
0.00596218 -1.13839e-05 0.00850066
0.00419646 -7.16956e-06 0.00339908
0.00792527 0.00469223 0.002031
0.00999133 0.00427518 0.00253278
0.00423396 0.00999412 0.00666453
0.00283626 0.00999742 0.00283149
0.0013076 -6.7682e-07 0.00241826
0 0.00727418 0.00419576
0.0100025 0.00575142 0.00665634
0.00698093 0.00998609 0.00307823
0.00752011 0.00862292 0.00999119
0 0.00574334 0.00336387
0 0.0043297 0.00416652
0.00687323 0.00577318 0.00999245
0.00999312 0.00299935 0.00690483
0.00421121 -6.91494e-06 0.00666489
0.00248211 0.00999769 0.00861064
0.00746417 0.0013497 -2.04719e-06
0.00577917 0.00665884 0.009994
0.0100121 0.00749847 0.00857913
0.00861986 0.00753637 0.00998936
0.00689817 0.00300915 -1.64495e-06
0.00335863 0.00574091 -1.12789e-07
0.00752813 0.00861537 -2.87127e-06
0.00752224 0.0099839 0.00138392
0.00577749 0.00685875 -1.35036e-06
0.00697212 0.00635905 0.00303026
0.00748853 -1.7117e-05 0.00138521
0.00288455 0.00499761 0.00999835
0.00433193 0.00582949 0.00999626
0.00432826 0.00416245 0.00999635
0.00753159 0.00998463 0.00860789
0.00246837 -2.68802e-06 0.00861092
0.00999745 0.00572099 0.00335688
0 0.00302218 0.00691532
0.00999906 0.00399548 0.00849029
0.00848785 0.00399975 -2.98917e-06
0.0099845 0.00268552 0.00153644
0 0.00244495 0.00857025
0.0024488 0.00856853 0.00999851
0.00749815 -1.64559e-05 0.00860785
0.00848173 0.00260616 0.0099897
0.0088515 0.00417568 0.00998906
0.00567898 0.00999041 0.00582992
0.00518761 0.00757685 0.00503009
0.00564944 0.00999033 0.00421272
0.00698436 0.00998648 0.0069207
0.00302459 0.00691371 0.00999796
0.00415759 0.0043254 -3.14799e-07
0.00282364 -3.80865e-06 0.00440428
0.00314069 -4.2371e-06 0.00582489
0.0099893 0.00417233 0.00112006
0.00363768 0.0083337 0.00158761
0.00999362 0.00430709 0.00415878
0.00665861 0.00576243 -1.64667e-06
0.00859902 0.00998039 0.00250199
0 0.00848692 0.00262374
0.00135205 0.00999967 0.00405978
0 0.00885053 0.00419359
0.00419408 0.00884487 -6.31708e-07
0.00420818 0.00999396 0.00168676
0.00499158 0.00478545 0.00237765
0.00720715 0.0045084 -1.94993e-06
0.00562151 -1.09825e-05 0.00421362
0.00565114 -1.08801e-05 0.00583043
0.00131332 0.00999968 0.00241802
0.00855048 0.00242598 -2.89013e-06
0.00999889 0.00449951 0.00720874
0.0071255 0.00998582 0.00499546
0.00573975 0.00335561 0.00999436
0.00244683 -3.03731e-06 0.00135649
0.00999362 0.00242182 0.00855844
0.00239273 0.00479005 0.00499957
0.00582146 0.00432126 -1.04443e-06
0.0083094 0.00579114 -3.17619e-06
0.00548911 0.00999114 0.00721662
0.00999606 0.0043077 0.00582394
0.00540816 0.00999088 0.00277368
0.00709266 -1.51712e-05 0.00499625
0.00283918 0.00999744 0.00440394
0 0.00452174 0.00721958
0.00452643 0.00721537 0.00999596
0.00546183 -1.01431e-05 0.0072166
0.00359911 0.00507105 0.00359585
0.00425741 0.00999404 0.00500667
0.00423407 -7.0921e-06 0.00500739
0.00366845 0.00521406 0.00617352
0 0.005744 0.00499998
0 0.00433013 0.00583333
0.00499297 0.00573813 -6.9039e-07
0.00498206 0.00633339 0.00355233
0.00538089 -1.04247e-05 0.00277459
0.00999981 0.0057219 0.0049913
0.00368913 0.00640498 0.00484308
0.005745 0.00499264 0.00999423
0.0099954 0.00575167 0.00158147
0 0.00666667 0
0.00858976 0.00750281 -3.71668e-06
0.00331766 -5.61809e-06 4.00115e-07
0 0.01 0.00666667
0.00501305 0.00999207 0.00999549
0 0.00288419 0.00499914
0.0100016 0.00746608 0.00136882
0.0099971 0.00664372 -5.09316e-06
0 0.005 0.01
0.00498473 0.00287684 -6.41694e-07
0 0.005 0
0.00997735 -2.49974e-05 0.00332679
0.0100188 0.00997537 0.00665598
0.0041927 0.00726969 -5.31477e-07
0.00998964 0.00286119 0.00499067
0.0049784 -9.92091e-06 -1.1949e-07
0 0 0.00666667
0.00379276 0.00361336 0.00522538
0.00498807 -9.42738e-06 0.00999498
0.00998218 -2.47202e-05 0.00665655
0 0 0.005
0.00878917 0.00997941 0.00121548
0.0100064 0.00875602 0.00121436
0.00997965 -2.48207e-05 0.00499166
0.00999112 0.00497687 -4.74816e-06
0.00121582 0.00121936 -2.29551e-08
0 0.00122008 0.00122008
0 0.00333333 0.01
0 0.00666667 0.01
0.00878344 0.0087603 -4.11142e-06
0.0100139 0.00997491 0.00332569
0.00421953 0.00999403 0.0033985
0.0100113 0.00664463 0.00998697
0 0.00333333 0
0 0.00122008 0.00877992
0.00121627 -7.43244e-07 0.00877954
0.00121753 0.00121959 0.00999997
0.00879966 0.0099802 0.00876966
0.00122082 0.00877958 0.00999973
0 0.00877992 0.00877992
0.0100172 0.00875693 0.00876763
0.00667213 0.00998649 -2.62062e-06
0.00997878 0.00119538 0.00121523
0.0012215 0.00999944 0.00877986
0.0087972 0.00876134 0.00998908
0.0100052 0.00497797 0.00998701
0 0 0.00333333
0.0066407 -1.45254e-05 -1.06001e-06
0.00875319 -2.12332e-05 0.00121687
0.00120642 -8.48945e-07 0.00121196
0 0.00877992 0.00122008
0.00121946 0.00877943 6.10413e-08
0.00121187 0.00999952 0.00121134
0.00998963 0.00119605 0.00876776
0.00877006 0.00120011 0.00998903
0.00665298 -1.40638e-05 0.00999217
0.00875598 0.00119946 -2.93346e-06
0.00876396 -2.06354e-05 0.00876949
0.00998516 0.00330984 -4.49174e-06
0.00334186 0.00999581 0.00999793
0.00246085 0.00999795 0.00135606
0.00668412 0.00998739 0.00999287
0.00999917 0.00331094 0.00998705
0 0.01 0.005
0.00262297 0.00848482 -5.69156e-08
0.0100162 0.00997513 0.00499107
0 0.01 0.00333333
0 0.00166667 0
0.00997517 -2.53063e-05 0.00166165
0 0.00166667 0.01
0 0.00833333 0
0.0100035 0.00830949 -5.23758e-06
0.00998477 -2.47923e-05 0.00832138
0.0100118 0.00997473 0.00166043
0.0100213 0.00997549 0.0083213
0.00167021 0.00999849 0.00999945
0 0.01 0.00833333
0.00834093 0.00998071 -4.04671e-06
0.00830549 -2.00912e-05 -2.37333e-06
0.00831928 -1.95267e-05 0.00998945
0.00835422 0.00998159 0.00998997
0 0 0.00833333
0.0100176 0.00831066 0.0099869
0.00165848 -1.99983e-06 1.34676e-07
0 0 0.00166667
0.00333607 0.0099959 -4.20938e-07
0.00999323 0.00164276 0.00998695
0.00997914 0.00164201 -4.3116e-06
0.0016614 -1.59251e-06 0.00999954
0.00166774 0.00999881 -8.19038e-08
0 0.01 0.00166667
0.0100239 0.00997565 0.00998703
0 0 0.01
0.0100099 0.00997454 -5.64604e-06
0.00998732 -2.49773e-05 0.00998661
0 0.01 0.01
0.00997318 -2.5457e-05 -4.04727e-06
0 0.01 0
0 0 0
0.00500387 0.00999154 -1.29357e-06
0.00332454 -5.1515e-06 0.00999733
0 0.00833333 0.01

CELLS 343 686
1 0
1 1
1 2
1 3
1 4
1 5
1 6
1 7
1 8
1 9
1 10
1 11
1 12
1 13
1 14
1 15
1 16
1 17
1 18
1 19
1 20
1 21
1 22
1 23
1 24
1 25
1 26
1 27
1 28
1 29
1 30
1 31
1 32
1 33
1 34
1 35
1 36
1 37
1 38
1 39
1 40
1 41
1 42
1 43
1 44
1 45
1 46
1 47
1 48
1 49
1 50
1 51
1 52
1 53
1 54
1 55
1 56
1 57
1 58
1 59
1 60
1 61
1 62
1 63
1 64
1 65
1 66
1 67
1 68
1 69
1 70
1 71
1 72
1 73
1 74
1 75
1 76
1 77
1 78
1 79
1 80
1 81
1 82
1 83
1 84
1 85
1 86
1 87
1 88
1 89
1 90
1 91
1 92
1 93
1 94
1 95
1 96
1 97
1 98
1 99
1 100
1 101
1 102
1 103
1 104
1 105
1 106
1 107
1 108
1 109
1 110
1 111
1 112
1 113
1 114
1 115
1 116
1 117
1 118
1 119
1 120
1 121
1 122
1 123
1 124
1 125
1 126
1 127
1 128
1 129
1 130
1 131
1 132
1 133
1 134
1 135
1 136
1 137
1 138
1 139
1 140
1 141
1 142
1 143
1 144
1 145
1 146
1 147
1 148
1 149
1 150
1 151
1 152
1 153
1 154
1 155
1 156
1 157
1 158
1 159
1 160
1 161
1 162
1 163
1 164
1 165
1 166
1 167
1 168
1 169
1 170
1 171
1 172
1 173
1 174
1 175
1 176
1 177
1 178
1 179
1 180
1 181
1 182
1 183
1 184
1 185
1 186
1 187
1 188
1 189
1 190
1 191
1 192
1 193
1 194
1 195
1 196
1 197
1 198
1 199
1 200
1 201
1 202
1 203
1 204
1 205
1 206
1 207
1 208
1 209
1 210
1 211
1 212
1 213
1 214
1 215
1 216
1 217
1 218
1 219
1 220
1 221
1 222
1 223
1 224
1 225
1 226
1 227
1 228
1 229
1 230
1 231
1 232
1 233
1 234
1 235
1 236
1 237
1 238
1 239
1 240
1 241
1 242
1 243
1 244
1 245
1 246
1 247
1 248
1 249
1 250
1 251
1 252
1 253
1 254
1 255
1 256
1 257
1 258
1 259
1 260
1 261
1 262
1 263
1 264
1 265
1 266
1 267
1 268
1 269
1 270
1 271
1 272
1 273
1 274
1 275
1 276
1 277
1 278
1 279
1 280
1 281
1 282
1 283
1 284
1 285
1 286
1 287
1 288
1 289
1 290
1 291
1 292
1 293
1 294
1 295
1 296
1 297
1 298
1 299
1 300
1 301
1 302
1 303
1 304
1 305
1 306
1 307
1 308
1 309
1 310
1 311
1 312
1 313
1 314
1 315
1 316
1 317
1 318
1 319
1 320
1 321
1 322
1 323
1 324
1 325
1 326
1 327
1 328
1 329
1 330
1 331
1 332
1 333
1 334
1 335
1 336
1 337
1 338
1 339
1 340
1 341
1 342

CELL_TYPES 343
1
1
1
1
1
1
1
1
1
1
1
1
1
1
1
1
1
1
1
1
1
1
1
1
1
1
1
1
1
1
1
1
1
1
1
1
1
1
1
1
1
1
1
1
1
1
1
1
1
1
1
1
1
1
1
1
1
1
1
1
1
1
1
1
1
1
1
1
1
1
1
1
1
1
1
1
1
1
1
1
1
1
1
1
1
1
1
1
1
1
1
1
1
1
1
1
1
1
1
1
1
1
1
1
1
1
1
1
1
1
1
1
1
1
1
1
1
1
1
1
1
1
1
1
1
1
1
1
1
1
1
1
1
1
1
1
1
1
1
1
1
1
1
1
1
1
1
1
1
1
1
1
1
1
1
1
1
1
1
1
1
1
1
1
1
1
1
1
1
1
1
1
1
1
1
1
1
1
1
1
1
1
1
1
1
1
1
1
1
1
1
1
1
1
1
1
1
1
1
1
1
1
1
1
1
1
1
1
1
1
1
1
1
1
1
1
1
1
1
1
1
1
1
1
1
1
1
1
1
1
1
1
1
1
1
1
1
1
1
1
1
1
1
1
1
1
1
1
1
1
1
1
1
1
1
1
1
1
1
1
1
1
1
1
1
1
1
1
1
1
1
1
1
1
1
1
1
1
1
1
1
1
1
1
1
1
1
1
1
1
1
1
1
1
1
1
1
1
1
1
1
1
1
1
1
1
1
1
1
1
1
1
1
1
1
1
1
1
1
1
1
1
1
1
1
1
1
1
1
1
1
1
1
1
1
1
1
1
1
1
1
1
1

POINT_DATA 343
FIELD FieldData 3

ExternalForceID_(#) 1 343 int
0
1
2
3
4
5
6
7
8
9
10
11
12
13
14
15
16
17
18
19
20
21
22
23
24
25
26
27
28
29
30
31
32
33
34
35
36
37
38
39
40
41
42
43
44
45
46
47
48
49
50
51
52
53
54
55
56
57
58
59
60
61
62
63
64
65
66
67
68
69
70
71
72
73
74
75
76
77
78
79
80
81
82
83
84
85
86
87
88
89
90
91
92
93
94
95
96
97
98
99
100
101
102
103
104
105
106
107
108
109
110
111
112
113
114
115
116
117
118
119
120
121
122
123
124
125
126
127
128
129
130
131
132
133
134
135
136
137
138
139
140
141
142
143
144
145
146
147
148
149
150
151
152
153
154
155
156
157
158
159
160
161
162
163
164
165
166
167
168
169
170
171
172
173
174
175
176
177
178
179
180
181
182
183
184
185
186
187
188
189
190
191
192
193
194
195
196
197
198
199
200
201
202
203
204
205
206
207
208
209
210
211
212
213
214
215
216
217
218
219
220
221
222
223
224
225
226
227
228
229
230
231
232
233
234
235
236
237
238
239
240
241
242
243
244
245
246
247
248
249
250
251
252
253
254
255
256
257
258
259
260
261
262
263
264
265
266
267
268
269
270
271
272
273
274
275
276
277
278
279
280
281
282
283
284
285
286
287
288
289
290
291
292
293
294
295
296
297
298
299
300
301
302
303
304
305
306
307
308
309
310
311
312
313
314
315
316
317
318
319
320
321
322
323
324
325
326
327
328
329
330
331
332
333
334
335
336
337
338
339
340
341
342

ExternalForceType_(0/1/2/3/4) 1 343 int
0
0
0
0
0
0
0
0
0
0
0
0
0
0
0
0
0
0
0
0
0
0
0
0
0
0
0
0
0
0
0
0
0
0
0
0
0
0
0
0
0
0
0
0
0
0
0
0
0
0
0
0
0
0
0
0
0
0
0
0
0
0
0
0
0
0
0
0
0
0
0
0
0
0
0
0
0
0
0
0
0
0
0
0
0
0
0
0
0
0
0
0
0
0
0
0
0
0
0
0
0
0
0
0
0
0
0
0
0
0
0
0
0
0
0
0
0
0
0
0
0
0
0
0
0
0
0
0
0
0
0
0
0
0
0
0
0
0
0
0
0
0
0
0
0
0
0
0
0
0
0
0
0
0
0
0
0
0
0
0
0
0
0
0
0
0
0
0
0
0
0
0
0
0
0
0
0
0
0
0
0
0
0
0
0
0
0
0
0
0
0
0
0
0
0
0
0
0
0
0
0
0
0
0
0
0
0
0
0
0
0
0
0
0
0
0
0
0
0
0
0
0
0
0
0
0
0
0
0
0
0
0
0
0
0
0
0
0
0
0
0
0
0
0
0
0
0
0
0
0
0
0
0
0
0
0
0
0
0
0
0
0
0
0
0
0
0
0
0
0
0
0
0
0
0
0
0
0
0
0
0
0
0
0
0
0
0
0
0
0
0
0
0
0
0
0
0
0
0
0
0
0
0
0
0
0
0
0
0
0
0
0
0
0
0
0
0
0
0
0
0
0
0
0
0
0
0
0
0
0
0
0
0
0
0
0
0
0
0
0
0
0
0

ExternalForce_(N) 3 343 double
0 -3.09568e-05 0
0 -0.000138619 0
0 -2.16714e-05 0
0 -0.000168226 0
0 -8.26002e-05 0
0 -8.9203e-05 0
0 -9.74165e-05 0
0 -7.37906e-05 0
0 -6.68156e-05 0
0 -5.47617e-05 0
0 -3.04981e-05 0
0 -0.000105531 0
0 -4.77758e-05 0
0 -0.000161821 0
0 -2.96713e-05 0
0 -7.9067e-05 0
0 -6.57564e-05 0
0 -0.000106704 0
0 -4.11017e-05 0
0 -8.006e-05 0
0 -6.02474e-05 0
0 -0.000115662 0
0 -2.18875e-05 0
0 -4.17098e-05 0
0 -0.000107827 0
0 -7.27379e-05 0
0 -4.13856e-05 0
0 -3.85027e-05 0
0 -3.029e-05 0
0 -0.000128774 0
0 -7.57947e-05 0
0 -0.000162261 0
0 -0.000116775 0
0 -7.15802e-05 0
0 -3.74431e-05 0
0 -0.000108892 0
0 -3.74072e-05 0
0 -0.000136493 0
0 -6.25303e-05 0
0 -7.85756e-05 0
0 -7.52544e-05 0
0 -0.000116589 0
0 -0.000160874 0
0 -2.73339e-05 0
0 -8.7662e-05 0
0 -2.53184e-05 0
0 -7.42972e-05 0
0 -4.15199e-05 0
0 -0.000128792 0
0 -3.72945e-05 0
0 -2.72189e-05 0
0 -7.03157e-05 0
0 -0.000119003 0
0 -5.02041e-05 0
0 -8.04153e-05 0
0 -4.4939e-05 0
0 -2.74192e-05 0
0 -3.19929e-05 0
0 -4.04607e-05 0
0 -2.07889e-05 0
0 -3.28809e-05 0
0 -3.54797e-05 0
0 -0.000153858 0
0 -7.19739e-05 0
0 -8.09026e-05 0
0 -4.90862e-05 0
0 -2.77255e-05 0
0 -7.06591e-05 0
0 -3.20606e-05 0
0 -4.10794e-05 0
0 -1.98932e-05 0
0 -2.37551e-05 0
0 -3.0591e-05 0
0 -5.86107e-05 0
0 -5.75946e-05 0
0 -4.01595e-05 0
0 -5.35099e-05 0
0 -2.24477e-05 0
0 -4.41213e-05 0
0 -4.29866e-05 0
0 -4.42325e-05 0
0 -4.30889e-05 0
0 -4.19155e-05 0
0 -5.21923e-05 0
0 -1.5029e-05 0
0 -2.34331e-05 0
0 -1.9903e-05 0
0 -4.30461e-05 0
0 -3.11931e-05 0
0 -3.08326e-05 0
0 -4.52797e-05 0
0 -5.7648e-05 0
0 -8.02544e-05 0
0 -2.43623e-05 0
0 -0.000150893 0
0 -3.43039e-05 0
0 -7.21258e-05 0
0 -1.97489e-05 0
0 -2.00202e-05 0
0 -7.83017e-05 0
0 -4.32908e-05 0
0 -7.00326e-05 0
0 -1.17841e-05 0
0 -4.93779e-05 0
0 -1.58193e-05 0
0 -4.04762e-05 0
0 -8.57147e-05 0
0 -4.2953e-05 0
0 -7.82027e-05 0
0 -2.09499e-05 0
0 -3.31713e-05 0
0 -9.30599e-05 0
0 -7.26197e-05 0
0 -1.76801e-05 0
0 -2.06228e-05 0
0 -7.8371e-05 0
0 -1.84411e-05 0
0 -7.30662e-05 0
0 -4.11806e-05 0
0 -2.3265e-05 0
0 -4.23503e-05 0
0 -5.94919e-05 0
0 -4.22718e-05 0
0 -2.12723e-05 0
0 -1.86252e-05 0
0 -1.77849e-05 0
0 -3.82356e-05 0
0 -2.39658e-05 0
0 -1.62481e-05 0
0 -7.86148e-05 0
0 -1.61387e-05 0
0 -2.34763e-05 0
0 -2.95637e-05 0
0 -2.93742e-05 0
0 -1.33947e-05 0
0 -1.83735e-05 0
0 -2.05639e-05 0
0 -1.91062e-05 0
0 -1.84053e-05 0
0 -6.25793e-05 0
0 -4.49914e-05 0
0 -1.98914e-05 0
0 -1.58922e-05 0
0 -2.367e-05 0
0 -3.81266e-05 0
0 -4.36518e-05 0
0 -2.25472e-05 0
0 -0.000115119 0
0 -3.05886e-05 0
0 -1.32828e-05 0
0 -3.38507e-05 0
0 -1.78391e-05 0
0 -2.88237e-05 0
0 -1.34771e-05 0
0 -2.36876e-05 0
0 -2.06453e-05 0
0 -2.58912e-05 0
0 -2.10097e-05 0
0 -1.7602e-05 0
0 -3.13896e-05 0
0 -1.34386e-05 0
0 -2.38863e-05 0
0 -2.04203e-05 0
0 -1.33426e-05 0
0 -2.13076e-05 0
0 -1.86316e-05 0
0 -3.10974e-05 0
0 -2.56228e-05 0
0 -2.33161e-05 0
0 -1.57181e-05 0
0 -1.87061e-05 0
0 -5.38771e-05 0
0 -1.84308e-05 0
0 -3.08341e-05 0
0 -2.91652e-05 0
0 -1.16203e-05 0
0 -1.85667e-05 0
0 -2.00287e-05 0
0 -2.68375e-05 0
0 -2.37799e-05 0
0 -3.16945e-05 0
0 -3.13676e-05 0
0 -3.15313e-05 0
0 -1.90796e-05 0
0 -1.58134e-05 0
0 -1.83326e-05 0
0 -3.16308e-05 0
0 -2.07128e-05 0
0 -2.91276e-05 0
0 -6.03597e-05 0
0 -2.26581e-05 0
0 -2.35174e-05 0
0 -2.33506e-05 0
0 -2.59482e-05 0
0 -1.63393e-05 0
0 -1.78912e-05 0
0 -2.02658e-05 0
0 -5.62379e-05 0
0 -2.04507e-05 0
0 -2.14176e-05 0
0 -2.38895e-05 0
0 -3.05955e-05 0
0 -3.11287e-05 0
0 -2.01544e-05 0
0 -1.92198e-05 0
0 -2.99909e-05 0
0 -6.32085e-05 0
0 -2.04829e-05 0
0 -2.67435e-05 0
0 -2.11611e-05 0
0 -1.83262e-05 0
0 -1.96474e-05 0
0 -2.0699e-05 0
0 -2.83503e-05 0
0 -2.27807e-05 0
0 -2.35234e-05 0
0 -1.93874e-05 0
0 -6.29086e-05 0
0 -2.12117e-05 0
0 -3.22943e-05 0
0 -2.06229e-05 0
0 -2.61501e-05 0
0 -1.90721e-05 0
0 -2.86319e-05 0
0 -2.53212e-05 0
0 -2.07681e-05 0
0 -2.05553e-05 0
0 -1.88077e-05 0
0 -6.92631e-05 0
0 -2.20924e-05 0
0 -2.02457e-05 0
0 -6.16224e-05 0
0 -2.08117e-05 0
0 -2.85397e-05 0
0 -2.08875e-05 0
0 -6.32617e-05 0
0 -1.39008e-05 0
0 -2.0289e-05 0
0 -6.45558e-05 0
0 -2.47785e-05 0
0 -2.35177e-05 0
0 -7.28089e-06 0
0 -2.18143e-05 0
0 -6.93323e-06 0
0 -6.87344e-06 0
0 -8.76768e-06 0
0 -2.48719e-05 0
0 -2.22231e-05 0
0 -1.31068e-05 0
0 -7.69816e-06 0
0 -2.27889e-05 0
0 -5.95166e-06 0
0 -6.55579e-06 0
0 -6.71305e-06 0
0 -2.46468e-05 0
0 -2.27228e-05 0
0 -7.6878e-06 0
0 -6.67903e-06 0
0 -6.10861e-05 0
0 -6.6189e-06 0
0 -6.52665e-06 0
0 -6.87836e-06 0
0 -1.78856e-05 0
0 -1.87072e-05 0
0 -6.73674e-06 0
0 -6.91401e-06 0
0 -1.82903e-05 0
0 -2.2423e-05 0
0 -6.67521e-06 0
0 -7.02401e-06 0
0 -1.78908e-05 0
0 -5.89658e-06 0
0 -1.98938e-05 0
0 -7.3162e-06 0
0 -5.63509e-06 0
0 -1.76631e-05 0
0 -1.42638e-05 0
0 -2.22707e-05 0
0 -1.77204e-05 0
0 -2.11264e-05 0
0 -1.75686e-05 0
0 -1.76047e-05 0
0 -6.69346e-06 0
0 -2.20467e-05 0
0 -1.42479e-05 0
0 -1.76144e-05 0
0 -6.84615e-06 0
0 -6.12404e-06 0
0 -6.50125e-06 0
0 -1.41879e-05 0
0 -1.37476e-05 0
0 -2.11168e-05 0
0 -1.79377e-05 0
0 -1.37282e-05 0
0 -1.41198e-05 0
0 -2.15061e-05 0
0 -6.84475e-06 0
0 -1.74349e-05 0
0 -1.75758e-05 0
0 -6.41828e-06 0
0 -7.20025e-06 0
0 -2.30432e-05 0
0 -6.96894e-06 0
0 -6.44499e-06 0
0 -6.14414e-06 0
0 -2.14766e-05 0
0 -6.00855e-06 0
0 -5.92427e-06 0
0 -5.81567e-06 0
0 -5.02303e-06 0
0 -5.01945e-06 0
0 -4.85271e-06 0
0 -4.87573e-06 0
0 -4.8684e-06 0
0 -5.22951e-06 0
0 -4.84801e-06 0
0 -4.88396e-06 0
0 -4.77612e-06 0
0 -4.81304e-06 0
0 -4.85251e-06 0
0 -4.8555e-06 0
0 -4.82575e-06 0
0 -4.80313e-06 0
0 -4.86923e-06 0
0 -4.85781e-06 0
0 -4.73027e-06 0
0 -1.08748e-05 0
0 -5.22863e-06 0
0 -5.34413e-06 0
0 -5.26459e-06 0
0 -5.05624e-06 0
0 -4.92238e-06 0
0 -5.43253e-06 0
0 -5.43253e-06 0
0 -5.43253e-06 0
0 -5.43253e-06 0
0 -5.43253e-06 0
0 -5.43253e-06 0
0 -5.40321e-06 0
0 -5.40321e-06 0
0 -7.3113e-06 0
0 -6.98147e-06 0
0 -4.8949e-06 0

