# vtk DataFile Version 4.2
vtk output
ASCII
DATASET UNSTRUCTURED_GRID

POINTS 343 double
0.00119124 0.00419704 -2.31401e-06
0.00230467 0.00498619 0.00217065
0 0.00419538 0.00112517
0.00204653 0.00195789 0.0019381
0.00548985 0.00241284 0.00502047
0.00549555 0.00383537 0.00638401
0.00811326 0.00477883 0.00498066
0.00662034 0.00485475 0.00367908
0.00727017 0.00329371 0.00689476
0.00530455 0.00499735 0.00498839
0.00443958 0.00112359 0.00998677
0.00560937 0.00208624 0.00788894
0.00444732 -1.10579e-06 0.00830542
0.00213414 0.00200628 0.00802895
0.00455381 0.00253837 0.00998649
0.00740676 0.00644935 0.00692678
0.00682565 0.00618561 0.00516758
0.00239751 0.0021886 0.00514101
0 0.00143586 0.00417514
0.00169154 0.00346928 0.0040334
0.00727104 0.00319924 0.00314838
0.00823838 0.0022187 0.00504545
0 0.00270918 0.00154168
0.00441621 0.00143393 -6.73662e-06
0.00531876 0.00219352 0.00218933
0.00420899 0.00353176 0.00159615
0.00142567 2.26695e-06 0.00405705
0.00443994 -1.44578e-06 0.00168099
0.0027926 0.00695569 -4.6342e-06
0.00205988 0.00805632 0.00194076
0.00434646 0.0062529 0.00163781
0.00853104 0.00798533 0.00797162
0.00848059 0.00481831 0.007997
0.00893745 0.00608022 0.00592562
0.0106751 0.00882032 0.00416832
0.00807334 0.00763588 0.00494539
0.00914219 0.00997506 0.00414666
0.0085031 0.00796996 0.00200173
0.00375366 0.00304142 0.00695094
0.00471454 0.00366728 0.00831152
0.00412981 0.00160606 0.00595992
0.00532796 0.00767214 0.00766241
0.00211426 0.0080116 0.00798495
0.00301024 0.0100007 0.00712018
0.00416728 0.00840343 0.00594831
0 0.00695361 0.00262895
0.00174838 0.00624219 0.0040843
0 0.0040177 0.00850214
0.00245808 0.00498961 0.00765619
0.00152156 0.00417706 0.00999666
0.00764572 0.0071196 0.00997291
0.00651155 0.00597449 0.0083983
0.00218022 0.00794527 0.00473721
0.00323461 0.00694768 0.00646067
0.00168508 0.00608128 0.00592245
0.0106552 0.00578275 0.00828222
0 0.00718191 0.00711644
0.00168291 0.00577622 -3.28246e-06
0 0.00577432 0.00158701
0.0106642 0.00715417 0.00708372
0.00304623 0.00335365 0.0099917
0.010623 0.00141477 0.00415128
0.00854949 0.00194879 0.00196534
0.008931 0.00350575 0.00397997
0.00395266 0.00165332 0.00412019
0.00160502 0.0100028 0.0058115
0.00297891 1.46855e-06 0.00712143
0.00649794 0.00417629 0.00835713
0.0106628 0.00724501 0.00417068
0.00907257 -1.29049e-05 0.00414867
0.0035493 0.0028745 -5.61512e-06
0.00286653 0.00154325 0.00999228
0.00298821 1.11467e-06 0.00282592
0.00510046 0.0051992 0.00754074
0.0033517 0.00315102 0.00316042
0 0.00849157 0.00581511
0.0051679 0.00367486 0.00377605
0.00163054 0.00271164 -3.2019e-06
0.00618063 0.00831858 0.0099784
0.00638194 0.00999049 0.00848569
0.0044898 0.00999719 0.00830508
0.00427894 0.00850209 0.00998615
0.0106731 0.00846208 0.00578561
0.00334479 0.00683818 0.00314398
0 0.00748929 0.00137438
0.00145947 0.00749189 -2.97897e-06
0 0.00287343 0.00335182
0 0.00580816 0.00831736
0 0.00429792 0.00253898
0.00269129 0.00429985 -4.38744e-06
0.00152297 0.00582197 0.0099966
0.00550524 0.00647287 0.00638645
0.00383122 0.00651453 0.00822378
0.00737507 0.00261882 0.00997513
0.00851092 0.00194579 0.00800889
0.00737726 -8.2873e-06 0.00306888
0.00637537 0.00165882 0.00360084
0.0106321 0.0028511 0.00333006
0 0.00140616 0.00256446
0.00678898 0.00821867 0.00640264
0.0061603 0.00142969 -8.33301e-06
0.00640291 0.0035462 0.00159334
0.00336103 0.00999986 0.00581765
0.00913715 0.00997545 0.00580853
0.00271051 0.00140709 -4.34608e-06
0.00632046 -5.16678e-06 0.00148498
0.00669004 0.00827853 0.00360369
0.00906774 -1.27177e-05 0.00580971
0.00657353 0.00166699 0.00634823
0.00148765 0.00256686 0.0099968
0.00757706 0.00716861 -1.10472e-05
0.00549818 0.0076856 0.00215931
0.00631737 0.00608737 0.00159181
0 0.00686719 0.00578184
0.0106227 0.00138507 0.00254448
0.00188034 0.00361316 0.00640397
0.0106723 0.00845674 0.00260233
0.00895338 0.00617116 0.004113
0.00637952 0.00998902 0.00148312
0.00737781 -7.67188e-06 0.00690571
0.0106239 0.00141447 0.00579088
0.00892101 0.00355795 0.00603688
0.00159207 2.31856e-06 0.00581191
0 0.0013659 0.00748679
0.00144571 2.21157e-06 0.00752608
0.0106605 0.00683928 0.00575295
0.00619666 0.00848307 -8.84107e-06
0 0.0075208 0.00859127
0.00145065 0.0074893 0.00999657
0.0045018 0.00820406 0.00361902
0.00917389 0.00997546 0.00748319
0.0106759 0.00860074 0.00749231
0.00611702 0.00158179 0.00997988
0.00771281 0.0041779 0.00997353
0 0.0057735 0.00666667
0.00145709 0.0100023 0.00752594
0 0.00863025 0.00752641
0.00910097 -1.34108e-05 0.00249157
0.0106602 0.00692454 0.00260777
0.00900469 0.00632279 0.00214707
0.00905849 0.00580625 0.00996747
0.00794234 0.00136318 0.00997262
0.00910451 -1.30354e-05 0.0074842
0.0106251 0.00134528 0.00745382
0 0.00143551 0.00581971
0.00632294 -4.69105e-06 0.00848641
0.00444875 -1.33931e-06 0.00339175
0.00843194 0.00469295 0.00202042
0.0106415 0.0042741 0.00251911
0.00450781 0.00999654 0.00665484
0.00302002 0.0100008 0.00282559
0.0013852 2.11533e-06 0.00241554
0 0.00727418 0.00419576
0.0106534 0.00574837 0.00663527
0.00744199 0.00998405 0.00306692
0.00800722 0.00862144 0.00997125
0 0.00574334 0.00336387
0 0.0043297 0.00416652
0.00730771 0.00577505 0.00997466
0.0106349 0.00300037 0.00688336
0.00446263 -1.07021e-06 0.0066557
0.00264111 0.0100007 0.00860479
0.0079345 0.00135434 -1.08966e-05
0.00614439 0.00666157 0.00997895
0.0106684 0.00749315 0.00855511
0.00917706 0.00753363 0.00996656
0.00733454 0.00301297 -1.00592e-05
0.00357105 0.00574517 -5.51857e-06
0.00802508 0.00861302 -1.19447e-05
0.00802218 0.00998028 0.0013736
0.0061508 0.00686069 -8.79286e-06
0.00741922 0.00635954 0.00301941
0.00795551 -1.04029e-05 0.00137579
0.00306179 0.00500185 0.00999143
0.0046011 0.00583416 0.00998535
0.00459389 0.00416706 0.00998571
0.00802474 0.00998197 0.00858897
0.00261409 1.50949e-06 0.00860546
0.0106512 0.00571812 0.00334163
0 0.00302218 0.00691532
0.0106429 0.00399521 0.00846697
0.00903495 0.00400082 -1.2206e-05
0.010631 0.00268648 0.00152411
0 0.00244495 0.00857025
0.00260337 0.00857171 0.00999231
0.00795921 -9.90508e-06 0.00858979
0.00901393 0.00260906 0.00996803
0.00941381 0.00417639 0.00996623
0.00604854 0.00999117 0.00581747
0.00551777 0.0075795 0.00501954
0.00601854 0.00999094 0.00420197
0.00744161 0.0099849 0.00690449
0.00321323 0.00691837 0.00999035
0.0044186 0.00432966 -6.28957e-06
0.00299144 6.34306e-07 0.00439876
0.0033269 8.37723e-07 0.00581852
0.0106413 0.00417134 0.00110817
0.00387146 0.00833689 0.00158148
0.0106417 0.00430578 0.00414185
0.00708701 0.0057639 -9.8347e-06
0.00917085 0.00997436 0.00248909
0 0.00848692 0.00262374
0.00143753 0.0100025 0.00405672
0 0.00885053 0.00419359
0.00446806 0.00884737 -6.72803e-06
0.00448393 0.00999618 0.00167964
0.00530373 0.00478949 0.00236978
0.00766828 0.0045102 -1.05153e-05
0.00596322 -4.55555e-06 0.00420404
0.00599314 -4.4286e-06 0.00581881
0.00139675 0.0100024 0.002415
0.00909717 0.00242877 -1.21432e-05
0.0106453 0.00449816 0.00718664
0.00759426 0.00998358 0.00498158
0.00609324 0.00335975 0.00998017
0.00259318 1.46293e-06 0.00135213
0.0106329 0.00242357 0.00853516
0.00253919 0.00479366 0.00499467
0.00619037 0.00432482 -8.33946e-06
0.00884963 0.00578964 -1.26e-05
0.00584576 0.00999242 0.00720407
0.0106427 0.00430647 0.00580435
0.00576291 0.00999176 0.00276431
0.00752905 -8.17594e-06 0.00498353
0.00302228 0.0100009 0.00439789
0 0.00452174 0.00721958
0.00481183 0.00721918 0.00998422
0.00579122 -3.72365e-06 0.0072043
0.00382129 0.0050753 0.00358872
0.00453344 0.00999631 0.00499779
0.00448728 -1.07385e-06 0.00499915
0.00389438 0.00521847 0.00616585
0 0.005744 0.00499998
0 0.00433013 0.00583333
0.0053113 0.00574177 -7.35811e-06
0.00529646 0.00633685 0.00354343
0.0057089 -4.14404e-06 0.00276619
0.0106518 0.00571935 0.00497291
0.00391889 0.00640933 0.00483549
0.00610298 0.00499644 0.00997978
0.0106518 0.00574841 0.00156906
0 0.00666667 0
0.00915571 0.00749928 -1.34048e-05
0.00351953 -3.91234e-07 -4.94835e-06
0 0.01 0.00666667
0.00533795 0.00999377 0.00998235
0 0.00288419 0.00499914
0.0106647 0.00745938 0.00135663
0.0106593 0.00663871 -1.60838e-05
0 0.005 0.01
0.00529597 0.00288154 -7.47021e-06
0 0.005 0
0.0106154 -1.71379e-05 0.00331195
0.0106871 0.00996606 0.00663433
0.00446257 0.00727323 -6.56338e-06
0.0106325 0.00286268 0.00497257
0.0052849 -3.2404e-06 -7.38913e-06
0 0 0.00666667
0.00402377 0.00361781 0.00521762
0.00528827 -3.22572e-06 0.00998303
0.0106172 -1.6915e-05 0.00663565
0 0 0.005
0.00937652 0.00997267 0.00120421
0.010675 0.00874843 0.00120209
0.010616 -1.69308e-05 0.00497371
0.0106478 0.00497458 -1.53608e-05
0.00128891 0.00122142 -2.641e-06
0 0.00122008 0.00122008
0 0.00333333 0.01
0 0.00666667 0.01
0.00936794 0.00875498 -1.40145e-05
0.0106853 0.0099653 0.00330952
0.00449419 0.00999624 0.00339033
0.0106644 0.00664042 0.00996045
0 0.00333333 0
0 0.00122008 0.00877992
0.00128812 1.64419e-06 0.00877682
0.00128977 0.00122181 0.00999739
0.00937954 0.0099744 0.00874759
0.00129683 0.00878181 0.00999688
0 0.00877992 0.00877992
0.0106784 0.00875006 0.00874314
0.00711646 0.00998466 -1.13508e-05
0.0106215 0.00119925 0.00120331
0.00129857 0.0100017 0.00877737
0.00937139 0.0087569 0.00996564
0.0106523 0.00497599 0.0099608
0 0 0.00333333
0.00705377 -7.15186e-06 -9.66317e-06
0.00930633 -1.42837e-05 0.00120657
0.00127835 1.67337e-06 0.00120982
0 0.00877992 0.00122008
0.00129687 0.00878174 -2.48029e-06
0.00128933 0.0100018 0.00120856
0.0106253 0.00119965 0.00874406
0.00931874 0.00120433 0.0099667
0.00705842 -7.21722e-06 0.00997574
0.00931388 0.00120413 -1.23557e-05
0.0093101 -1.3969e-05 0.00874819
0.0106363 0.00330998 -1.48873e-05
0.00355679 0.00999843 0.00998967
0.00262099 0.0100011 0.00135122
0.00712053 0.00998651 0.00997535
0.010641 0.00331188 0.0099612
0 0.01 0.005
0.00279243 0.0084883 -4.64189e-06
0.0106859 0.00996557 0.00497258
0 0.01 0.00333333
0 0.00166667 0
0.0106151 -1.7709e-05 0.00164919
0 0.00166667 0.01
0 0.00833333 0
0.0106726 0.00830201 -1.5832e-05
0.0106186 -1.74539e-05 0.00829818
0.0106853 0.00996501 0.00164723
0.0106884 0.00996644 0.00829729
0.00177668 0.0100006 0.00999557
0 0.01 0.00833333
0.00889939 0.00997475 -1.40797e-05
0.00883007 -1.26643e-05 -1.20996e-05
0.00883495 -1.28637e-05 0.00996871
0.00890296 0.00997693 0.00996775
0 0 0.00833333
0.0106769 0.0083045 0.00996023
0.00175779 1.31937e-06 -3.12416e-06
0 0 0.00166667
0.00355607 0.00999867 -5.9273e-06
0.0106301 0.00164536 0.0099613
0.0106253 0.001645 -1.47448e-05
0.00175939 1.49574e-06 0.009996
0.00177615 0.0100013 -3.36091e-06
0 0.01 0.00166667
0.0106898 0.00996683 0.00996045
0 0 0.01
0.0106858 0.00996479 -1.66804e-05
0.0106196 -1.80784e-05 0.00996129
0 0.01 0.01
0.0106149 -1.78205e-05 -1.47944e-05
0 0.01 0
0 0 0
0.00533544 0.00999249 -8.37369e-06
0.00352205 -2.05755e-07 0.00998945
0 0.00833333 0.01

CELLS 343 686
1 0
1 1
1 2
1 3
1 4
1 5
1 6
1 7
1 8
1 9
1 10
1 11
1 12
1 13
1 14
1 15
1 16
1 17
1 18
1 19
1 20
1 21
1 22
1 23
1 24
1 25
1 26
1 27
1 28
1 29
1 30
1 31
1 32
1 33
1 34
1 35
1 36
1 37
1 38
1 39
1 40
1 41
1 42
1 43
1 44
1 45
1 46
1 47
1 48
1 49
1 50
1 51
1 52
1 53
1 54
1 55
1 56
1 57
1 58
1 59
1 60
1 61
1 62
1 63
1 64
1 65
1 66
1 67
1 68
1 69
1 70
1 71
1 72
1 73
1 74
1 75
1 76
1 77
1 78
1 79
1 80
1 81
1 82
1 83
1 84
1 85
1 86
1 87
1 88
1 89
1 90
1 91
1 92
1 93
1 94
1 95
1 96
1 97
1 98
1 99
1 100
1 101
1 102
1 103
1 104
1 105
1 106
1 107
1 108
1 109
1 110
1 111
1 112
1 113
1 114
1 115
1 116
1 117
1 118
1 119
1 120
1 121
1 122
1 123
1 124
1 125
1 126
1 127
1 128
1 129
1 130
1 131
1 132
1 133
1 134
1 135
1 136
1 137
1 138
1 139
1 140
1 141
1 142
1 143
1 144
1 145
1 146
1 147
1 148
1 149
1 150
1 151
1 152
1 153
1 154
1 155
1 156
1 157
1 158
1 159
1 160
1 161
1 162
1 163
1 164
1 165
1 166
1 167
1 168
1 169
1 170
1 171
1 172
1 173
1 174
1 175
1 176
1 177
1 178
1 179
1 180
1 181
1 182
1 183
1 184
1 185
1 186
1 187
1 188
1 189
1 190
1 191
1 192
1 193
1 194
1 195
1 196
1 197
1 198
1 199
1 200
1 201
1 202
1 203
1 204
1 205
1 206
1 207
1 208
1 209
1 210
1 211
1 212
1 213
1 214
1 215
1 216
1 217
1 218
1 219
1 220
1 221
1 222
1 223
1 224
1 225
1 226
1 227
1 228
1 229
1 230
1 231
1 232
1 233
1 234
1 235
1 236
1 237
1 238
1 239
1 240
1 241
1 242
1 243
1 244
1 245
1 246
1 247
1 248
1 249
1 250
1 251
1 252
1 253
1 254
1 255
1 256
1 257
1 258
1 259
1 260
1 261
1 262
1 263
1 264
1 265
1 266
1 267
1 268
1 269
1 270
1 271
1 272
1 273
1 274
1 275
1 276
1 277
1 278
1 279
1 280
1 281
1 282
1 283
1 284
1 285
1 286
1 287
1 288
1 289
1 290
1 291
1 292
1 293
1 294
1 295
1 296
1 297
1 298
1 299
1 300
1 301
1 302
1 303
1 304
1 305
1 306
1 307
1 308
1 309
1 310
1 311
1 312
1 313
1 314
1 315
1 316
1 317
1 318
1 319
1 320
1 321
1 322
1 323
1 324
1 325
1 326
1 327
1 328
1 329
1 330
1 331
1 332
1 333
1 334
1 335
1 336
1 337
1 338
1 339
1 340
1 341
1 342

CELL_TYPES 343
1
1
1
1
1
1
1
1
1
1
1
1
1
1
1
1
1
1
1
1
1
1
1
1
1
1
1
1
1
1
1
1
1
1
1
1
1
1
1
1
1
1
1
1
1
1
1
1
1
1
1
1
1
1
1
1
1
1
1
1
1
1
1
1
1
1
1
1
1
1
1
1
1
1
1
1
1
1
1
1
1
1
1
1
1
1
1
1
1
1
1
1
1
1
1
1
1
1
1
1
1
1
1
1
1
1
1
1
1
1
1
1
1
1
1
1
1
1
1
1
1
1
1
1
1
1
1
1
1
1
1
1
1
1
1
1
1
1
1
1
1
1
1
1
1
1
1
1
1
1
1
1
1
1
1
1
1
1
1
1
1
1
1
1
1
1
1
1
1
1
1
1
1
1
1
1
1
1
1
1
1
1
1
1
1
1
1
1
1
1
1
1
1
1
1
1
1
1
1
1
1
1
1
1
1
1
1
1
1
1
1
1
1
1
1
1
1
1
1
1
1
1
1
1
1
1
1
1
1
1
1
1
1
1
1
1
1
1
1
1
1
1
1
1
1
1
1
1
1
1
1
1
1
1
1
1
1
1
1
1
1
1
1
1
1
1
1
1
1
1
1
1
1
1
1
1
1
1
1
1
1
1
1
1
1
1
1
1
1
1
1
1
1
1
1
1
1
1
1
1
1
1
1
1
1
1
1
1
1
1
1
1
1
1
1
1
1
1
1
1
1
1
1
1
1
1
1
1
1
1
1
1
1
1
1
1
1
1
1
1
1
1
1

POINT_DATA 343
FIELD FieldData 3

ExternalForceID_(#) 1 343 int
0
1
2
3
4
5
6
7
8
9
10
11
12
13
14
15
16
17
18
19
20
21
22
23
24
25
26
27
28
29
30
31
32
33
34
35
36
37
38
39
40
41
42
43
44
45
46
47
48
49
50
51
52
53
54
55
56
57
58
59
60
61
62
63
64
65
66
67
68
69
70
71
72
73
74
75
76
77
78
79
80
81
82
83
84
85
86
87
88
89
90
91
92
93
94
95
96
97
98
99
100
101
102
103
104
105
106
107
108
109
110
111
112
113
114
115
116
117
118
119
120
121
122
123
124
125
126
127
128
129
130
131
132
133
134
135
136
137
138
139
140
141
142
143
144
145
146
147
148
149
150
151
152
153
154
155
156
157
158
159
160
161
162
163
164
165
166
167
168
169
170
171
172
173
174
175
176
177
178
179
180
181
182
183
184
185
186
187
188
189
190
191
192
193
194
195
196
197
198
199
200
201
202
203
204
205
206
207
208
209
210
211
212
213
214
215
216
217
218
219
220
221
222
223
224
225
226
227
228
229
230
231
232
233
234
235
236
237
238
239
240
241
242
243
244
245
246
247
248
249
250
251
252
253
254
255
256
257
258
259
260
261
262
263
264
265
266
267
268
269
270
271
272
273
274
275
276
277
278
279
280
281
282
283
284
285
286
287
288
289
290
291
292
293
294
295
296
297
298
299
300
301
302
303
304
305
306
307
308
309
310
311
312
313
314
315
316
317
318
319
320
321
322
323
324
325
326
327
328
329
330
331
332
333
334
335
336
337
338
339
340
341
342

ExternalForceType_(0/1/2/3/4) 1 343 int
0
0
0
0
0
0
0
0
0
0
0
0
0
0
0
0
0
0
0
0
0
0
0
0
0
0
0
0
0
0
0
0
0
0
0
0
0
0
0
0
0
0
0
0
0
0
0
0
0
0
0
0
0
0
0
0
0
0
0
0
0
0
0
0
0
0
0
0
0
0
0
0
0
0
0
0
0
0
0
0
0
0
0
0
0
0
0
0
0
0
0
0
0
0
0
0
0
0
0
0
0
0
0
0
0
0
0
0
0
0
0
0
0
0
0
0
0
0
0
0
0
0
0
0
0
0
0
0
0
0
0
0
0
0
0
0
0
0
0
0
0
0
0
0
0
0
0
0
0
0
0
0
0
0
0
0
0
0
0
0
0
0
0
0
0
0
0
0
0
0
0
0
0
0
0
0
0
0
0
0
0
0
0
0
0
0
0
0
0
0
0
0
0
0
0
0
0
0
0
0
0
0
0
0
0
0
0
0
0
0
0
0
0
0
0
0
0
0
0
0
0
0
0
0
0
0
0
0
0
0
0
0
0
0
0
0
0
0
0
0
0
0
0
0
0
0
0
0
0
0
0
0
0
0
0
0
0
0
0
0
0
0
0
0
0
0
0
0
0
0
0
0
0
0
0
0
0
0
0
0
0
0
0
0
0
0
0
0
0
0
0
0
0
0
0
0
0
0
0
0
0
0
0
0
0
0
0
0
0
0
0
0
0
0
0
0
0
0
0
0
0
0
0
0
0
0
0
0
0
0
0
0
0
0
0
0
0
0
0
0
0
0
0

ExternalForce_(N) 3 343 double
0 -3.09568e-05 0
0 -0.000138619 0
0 -2.16714e-05 0
0 -0.000168226 0
0 -8.26002e-05 0
0 -8.9203e-05 0
0 -9.74165e-05 0
0 -7.37906e-05 0
0 -6.68156e-05 0
0 -5.47617e-05 0
0 -3.04981e-05 0
0 -0.000105531 0
0 -4.77758e-05 0
0 -0.000161821 0
0 -2.96713e-05 0
0 -7.9067e-05 0
0 -6.57564e-05 0
0 -0.000106704 0
0 -4.11017e-05 0
0 -8.006e-05 0
0 -6.02474e-05 0
0 -0.000115662 0
0 -2.18875e-05 0
0 -4.17098e-05 0
0 -0.000107827 0
0 -7.27379e-05 0
0 -4.13856e-05 0
0 -3.85027e-05 0
0 -3.029e-05 0
0 -0.000128774 0
0 -7.57947e-05 0
0 -0.000162261 0
0 -0.000116775 0
0 -7.15802e-05 0
0 -3.74431e-05 0
0 -0.000108892 0
0 -3.74072e-05 0
0 -0.000136493 0
0 -6.25303e-05 0
0 -7.85756e-05 0
0 -7.52544e-05 0
0 -0.000116589 0
0 -0.000160874 0
0 -2.73339e-05 0
0 -8.7662e-05 0
0 -2.53184e-05 0
0 -7.42972e-05 0
0 -4.15199e-05 0
0 -0.000128792 0
0 -3.72945e-05 0
0 -2.72189e-05 0
0 -7.03157e-05 0
0 -0.000119003 0
0 -5.02041e-05 0
0 -8.04153e-05 0
0 -4.4939e-05 0
0 -2.74192e-05 0
0 -3.19929e-05 0
0 -4.04607e-05 0
0 -2.07889e-05 0
0 -3.28809e-05 0
0 -3.54797e-05 0
0 -0.000153858 0
0 -7.19739e-05 0
0 -8.09026e-05 0
0 -4.90862e-05 0
0 -2.77255e-05 0
0 -7.06591e-05 0
0 -3.20606e-05 0
0 -4.10794e-05 0
0 -1.98932e-05 0
0 -2.37551e-05 0
0 -3.0591e-05 0
0 -5.86107e-05 0
0 -5.75946e-05 0
0 -4.01595e-05 0
0 -5.35099e-05 0
0 -2.24477e-05 0
0 -4.41213e-05 0
0 -4.29866e-05 0
0 -4.42325e-05 0
0 -4.30889e-05 0
0 -4.19155e-05 0
0 -5.21923e-05 0
0 -1.5029e-05 0
0 -2.34331e-05 0
0 -1.9903e-05 0
0 -4.30461e-05 0
0 -3.11931e-05 0
0 -3.08326e-05 0
0 -4.52797e-05 0
0 -5.7648e-05 0
0 -8.02544e-05 0
0 -2.43623e-05 0
0 -0.000150893 0
0 -3.43039e-05 0
0 -7.21258e-05 0
0 -1.97489e-05 0
0 -2.00202e-05 0
0 -7.83017e-05 0
0 -4.32908e-05 0
0 -7.00326e-05 0
0 -1.17841e-05 0
0 -4.93779e-05 0
0 -1.58193e-05 0
0 -4.04762e-05 0
0 -8.57147e-05 0
0 -4.2953e-05 0
0 -7.82027e-05 0
0 -2.09499e-05 0
0 -3.31713e-05 0
0 -9.30599e-05 0
0 -7.26197e-05 0
0 -1.76801e-05 0
0 -2.06228e-05 0
0 -7.8371e-05 0
0 -1.84411e-05 0
0 -7.30662e-05 0
0 -4.11806e-05 0
0 -2.3265e-05 0
0 -4.23503e-05 0
0 -5.94919e-05 0
0 -4.22718e-05 0
0 -2.12723e-05 0
0 -1.86252e-05 0
0 -1.77849e-05 0
0 -3.82356e-05 0
0 -2.39658e-05 0
0 -1.62481e-05 0
0 -7.86148e-05 0
0 -1.61387e-05 0
0 -2.34763e-05 0
0 -2.95637e-05 0
0 -2.93742e-05 0
0 -1.33947e-05 0
0 -1.83735e-05 0
0 -2.05639e-05 0
0 -1.91062e-05 0
0 -1.84053e-05 0
0 -6.25793e-05 0
0 -4.49914e-05 0
0 -1.98914e-05 0
0 -1.58922e-05 0
0 -2.367e-05 0
0 -3.81266e-05 0
0 -4.36518e-05 0
0 -2.25472e-05 0
0 -0.000115119 0
0 -3.05886e-05 0
0 -1.32828e-05 0
0 -3.38507e-05 0
0 -1.78391e-05 0
0 -2.88237e-05 0
0 -1.34771e-05 0
0 -2.36876e-05 0
0 -2.06453e-05 0
0 -2.58912e-05 0
0 -2.10097e-05 0
0 -1.7602e-05 0
0 -3.13896e-05 0
0 -1.34386e-05 0
0 -2.38863e-05 0
0 -2.04203e-05 0
0 -1.33426e-05 0
0 -2.13076e-05 0
0 -1.86316e-05 0
0 -3.10974e-05 0
0 -2.56228e-05 0
0 -2.33161e-05 0
0 -1.57181e-05 0
0 -1.87061e-05 0
0 -5.38771e-05 0
0 -1.84308e-05 0
0 -3.08341e-05 0
0 -2.91652e-05 0
0 -1.16203e-05 0
0 -1.85667e-05 0
0 -2.00287e-05 0
0 -2.68375e-05 0
0 -2.37799e-05 0
0 -3.16945e-05 0
0 -3.13676e-05 0
0 -3.15313e-05 0
0 -1.90796e-05 0
0 -1.58134e-05 0
0 -1.83326e-05 0
0 -3.16308e-05 0
0 -2.07128e-05 0
0 -2.91276e-05 0
0 -6.03597e-05 0
0 -2.26581e-05 0
0 -2.35174e-05 0
0 -2.33506e-05 0
0 -2.59482e-05 0
0 -1.63393e-05 0
0 -1.78912e-05 0
0 -2.02658e-05 0
0 -5.62379e-05 0
0 -2.04507e-05 0
0 -2.14176e-05 0
0 -2.38895e-05 0
0 -3.05955e-05 0
0 -3.11287e-05 0
0 -2.01544e-05 0
0 -1.92198e-05 0
0 -2.99909e-05 0
0 -6.32085e-05 0
0 -2.04829e-05 0
0 -2.67435e-05 0
0 -2.11611e-05 0
0 -1.83262e-05 0
0 -1.96474e-05 0
0 -2.0699e-05 0
0 -2.83503e-05 0
0 -2.27807e-05 0
0 -2.35234e-05 0
0 -1.93874e-05 0
0 -6.29086e-05 0
0 -2.12117e-05 0
0 -3.22943e-05 0
0 -2.06229e-05 0
0 -2.61501e-05 0
0 -1.90721e-05 0
0 -2.86319e-05 0
0 -2.53212e-05 0
0 -2.07681e-05 0
0 -2.05553e-05 0
0 -1.88077e-05 0
0 -6.92631e-05 0
0 -2.20924e-05 0
0 -2.02457e-05 0
0 -6.16224e-05 0
0 -2.08117e-05 0
0 -2.85397e-05 0
0 -2.08875e-05 0
0 -6.32617e-05 0
0 -1.39008e-05 0
0 -2.0289e-05 0
0 -6.45558e-05 0
0 -2.47785e-05 0
0 -2.35177e-05 0
0 -7.28089e-06 0
0 -2.18143e-05 0
0 -6.93323e-06 0
0 -6.87344e-06 0
0 -8.76768e-06 0
0 -2.48719e-05 0
0 -2.22231e-05 0
0 -1.31068e-05 0
0 -7.69816e-06 0
0 -2.27889e-05 0
0 -5.95166e-06 0
0 -6.55579e-06 0
0 -6.71305e-06 0
0 -2.46468e-05 0
0 -2.27228e-05 0
0 -7.6878e-06 0
0 -6.67903e-06 0
0 -6.10861e-05 0
0 -6.6189e-06 0
0 -6.52665e-06 0
0 -6.87836e-06 0
0 -1.78856e-05 0
0 -1.87072e-05 0
0 -6.73674e-06 0
0 -6.91401e-06 0
0 -1.82903e-05 0
0 -2.2423e-05 0
0 -6.67521e-06 0
0 -7.02401e-06 0
0 -1.78908e-05 0
0 -5.89658e-06 0
0 -1.98938e-05 0
0 -7.3162e-06 0
0 -5.63509e-06 0
0 -1.76631e-05 0
0 -1.42638e-05 0
0 -2.22707e-05 0
0 -1.77204e-05 0
0 -2.11264e-05 0
0 -1.75686e-05 0
0 -1.76047e-05 0
0 -6.69346e-06 0
0 -2.20467e-05 0
0 -1.42479e-05 0
0 -1.76144e-05 0
0 -6.84615e-06 0
0 -6.12404e-06 0
0 -6.50125e-06 0
0 -1.41879e-05 0
0 -1.37476e-05 0
0 -2.11168e-05 0
0 -1.79377e-05 0
0 -1.37282e-05 0
0 -1.41198e-05 0
0 -2.15061e-05 0
0 -6.84475e-06 0
0 -1.74349e-05 0
0 -1.75758e-05 0
0 -6.41828e-06 0
0 -7.20025e-06 0
0 -2.30432e-05 0
0 -6.96894e-06 0
0 -6.44499e-06 0
0 -6.14414e-06 0
0 -2.14766e-05 0
0 -6.00855e-06 0
0 -5.92427e-06 0
0 -5.81567e-06 0
0 -5.02303e-06 0
0 -5.01945e-06 0
0 -4.85271e-06 0
0 -4.87573e-06 0
0 -4.8684e-06 0
0 -5.22951e-06 0
0 -4.84801e-06 0
0 -4.88396e-06 0
0 -4.77612e-06 0
0 -4.81304e-06 0
0 -4.85251e-06 0
0 -4.8555e-06 0
0 -4.82575e-06 0
0 -4.80313e-06 0
0 -4.86923e-06 0
0 -4.85781e-06 0
0 -4.73027e-06 0
0 -1.08748e-05 0
0 -5.22863e-06 0
0 -5.34413e-06 0
0 -5.26459e-06 0
0 -5.05624e-06 0
0 -4.92238e-06 0
0 -5.43253e-06 0
0 -5.43253e-06 0
0 -5.43253e-06 0
0 -5.43253e-06 0
0 -5.43253e-06 0
0 -5.43253e-06 0
0 -5.40321e-06 0
0 -5.40321e-06 0
0 -7.3113e-06 0
0 -6.98147e-06 0
0 -4.8949e-06 0

