# vtk DataFile Version 4.2
vtk output
ASCII
DATASET UNSTRUCTURED_GRID

POINTS 343 double
0.0011225 0.00419492 8.7399e-08
0.00217109 0.00498252 0.00217533
0 0.00419538 0.00112517
0.00193011 0.00195446 0.00194214
0.00516972 0.00240694 0.00503204
0.00517244 0.00383009 0.00639731
0.00762279 0.00477554 0.00499845
0.00622466 0.00485048 0.0036915
0.00683663 0.00328871 0.00691354
0.00499117 0.00499257 0.00499963
0.00418088 0.0011182 0.00999891
0.00528143 0.00208035 0.00790379
0.00419075 -7.34873e-06 0.00831698
0.00201254 0.00200249 0.00803323
0.00428662 0.00253293 0.00999894
0.00695678 0.00644685 0.00694646
0.00641382 0.00618247 0.00518271
0.0022607 0.00218464 0.00514608
0 0.00143586 0.00417514
0.00159462 0.00346615 0.00403703
0.00683729 0.00319405 0.00316115
0.0077458 0.00221317 0.00506342
0 0.00270918 0.00154168
0.00415826 0.00142859 9.5368e-08
0.00500791 0.0021879 0.00219782
0.00396247 0.00352673 0.00160302
0.00134546 -5.99773e-07 0.00406001
0.00418352 -7.71349e-06 0.00168816
0.00262611 0.00695165 1.17486e-07
0.00193824 0.00805274 0.00194489
0.00408755 0.00624807 0.00164501
0.00800318 0.00798598 0.00799657
0.0079653 0.00481564 0.0080216
0.0083885 0.00607961 0.00594723
0.00999889 0.00882546 0.00419096
0.00757692 0.00763567 0.00496314
0.00856673 0.00997997 0.00416578
0.00797627 0.0079711 0.00201539
0.00353627 0.00303656 0.00695942
0.00443777 0.00366193 0.00832378
0.00389265 0.00160058 0.00596892
0.00500573 0.00766829 0.00767639
0.00198974 0.00800789 0.00798962
0.00282755 0.0099973 0.0071271
0.00391669 0.00839951 0.0059577
0 0.00695361 0.00262895
0.00164652 0.00623926 0.00408788
0 0.0040177 0.00850214
0.00231518 0.00498571 0.00766147
0.00143343 0.00417448 0.00999994
0.0071754 0.00711806 0.0099972
0.00611856 0.00597073 0.00841688
0.00205192 0.00794142 0.00474182
0.00304385 0.00694289 0.00646765
0.00158699 0.00607835 0.005926
0.00998957 0.00578364 0.00831353
0 0.00718191 0.00711644
0.00158452 0.00577345 4.4551e-08
0 0.00577432 0.00158701
0.00999415 0.00715735 0.00711299
0.0028678 0.00334931 0.00999959
0.00997056 0.00140901 0.00417308
0.00803639 0.00194293 0.00197837
0.00838951 0.00350208 0.00399751
0.003726 0.00164806 0.00412825
0.00150938 0.00999968 0.00581501
0.00280994 -3.54798e-06 0.00712765
0.00611028 0.00417145 0.00837536
0.00999284 0.00724939 0.00419327
0.00852905 -2.20753e-05 0.00416664
0.00334157 0.00286969 8.5073e-08
0.00270066 0.00153887 0.00999962
0.0028186 -3.92891e-06 0.002832
0.00479821 0.00519407 0.00755392
0.00315826 0.00314629 0.00316731
0 0.00849157 0.00581511
0.00486491 0.00366954 0.00378601
0.00153702 0.00270866 3.5463e-08
0.00580017 0.00831594 0.00999787
0.00598509 0.00998929 0.00850438
0.00421428 0.00999408 0.00831705
0.00401819 0.00849833 0.00999871
0.00999842 0.00846678 0.00581199
0.00314744 0.00683354 0.00315082
0 0.00748929 0.00137438
0.00137334 0.00748898 2.09362e-08
0 0.00287343 0.00335182
0 0.00580816 0.00831736
0 0.00429792 0.00253898
0.00253342 0.00429592 1.32659e-07
0.00143403 0.00581917 0.00999995
0.00517559 0.00646859 0.00639976
0.00360362 0.00650937 0.00823364
0.00693331 0.00261306 0.00999754
0.00800034 0.0019398 0.00803326
0.00694233 -1.64437e-05 0.00308138
0.00600102 0.00165251 0.00361238
0.00997553 0.00284742 0.00334998
0 0.00140616 0.00256446
0.00637346 0.00821671 0.0064198
0.00579656 0.00142336 1.37701e-07
0.006022 0.00354103 0.0016029
0.00315715 0.0099965 0.00582503
0.00856228 0.00998015 0.00583086
0.00255396 0.00140304 1.4062e-07
0.00595023 -1.30874e-05 0.00149425
0.00628014 0.00827673 0.00361652
0.00852471 -2.18974e-05 0.00583143
0.00618725 0.00166063 0.00636427
0.00140248 0.00256406 0.00999999
0.00711059 0.00716778 -6.13318e-07
0.00516489 0.00768228 0.00216856
0.00593606 0.00608382 0.00160147
0 0.00686719 0.00578184
0.00996955 0.0013791 0.00256294
0.00177237 0.00360989 0.00640784
0.0099967 0.00846179 0.00262159
0.00840334 0.00617056 0.00413118
0.00598242 0.00998863 0.00149323
0.00694284 -1.61505e-05 0.00692503
0.00997151 0.00140882 0.00581698
0.00837985 0.00355403 0.00605887
0.00150202 -7.59444e-07 0.00581518
0 0.0013659 0.00748679
0.00136387 -6.33352e-07 0.0075289
0.00999217 0.00684256 0.00577881
0.0058146 0.00848122 -3.7775e-07
0 0.0075208 0.00859127
0.00136529 0.00748644 0.00999987
0.00423089 0.00820032 0.00362803
0.00859605 0.00998003 0.00750926
0.01 0.00860557 0.00752266
0.00575614 0.00157571 0.00999811
0.00724644 0.00417359 0.00999733
0 0.0057735 0.00666667
0.00137038 0.00999961 0.00752891
0 0.00863025 0.00752641
0.00855481 -2.24935e-05 0.0025065
0.00999077 0.00692866 0.00262694
0.00845006 0.00632305 0.00216166
0.00850104 0.0058051 0.00999659
0.00746688 0.00135704 0.00999715
0.00855836 -2.21036e-05 0.00750943
0.00997215 0.00133929 0.00748339
0 0.00143551 0.00581971
0.00595325 -1.2619e-05 0.00850432
0.00419355 -7.74862e-06 0.00339985
0.00791987 0.00469033 0.00203354
0.00998049 0.00427252 0.00253722
0.00423166 0.00999386 0.00666592
0.00283645 0.00999734 0.00283186
0.00130708 -6.5559e-07 0.00241832
0 0.00727418 0.00419576
0.00998843 0.0057489 0.00666337
0.00697706 0.00998546 0.0030805
0.00750905 0.00862152 0.00999701
0 0.00574334 0.00336387
0 0.0043297 0.00416652
0.00686281 0.00577157 0.00999753
0.00997808 0.00299656 0.00691205
0.00420666 -7.53786e-06 0.00666626
0.00248059 0.00999769 0.00861128
0.00745934 0.00134796 -2.17896e-07
0.00577104 0.00665767 0.00999791
0.00999634 0.00749634 0.00858724
0.00860625 0.00753453 0.00999646
0.00689469 0.00300752 -7.94659e-08
0.00335862 0.00574045 1.76252e-07
0.00752509 0.00861416 -8.73009e-07
0.00751851 0.00998326 0.00138622
0.00577634 0.00685763 -2.98855e-07
0.00696784 0.00635755 0.00303248
0.00748265 -1.87474e-05 0.00138732
0.00288079 0.00499716 0.00999949
0.00432602 0.00582868 0.00999871
0.00432201 0.00416156 0.00999878
0.00752202 0.00998385 0.00861334
0.00246537 -2.98726e-06 0.00861147
0.0099864 0.00571844 0.0033618
0 0.00302218 0.00691532
0.00998274 0.00399272 0.00849832
0.00848226 0.0039976 -6.25334e-07
0.00997396 0.00268282 0.00154036
0 0.00244495 0.00857025
0.00244624 0.00856822 0.00999941
0.0074863 -1.82374e-05 0.00861324
0.00846719 0.00260386 0.00999661
0.00883656 0.00417331 0.0099964
0.00567537 0.00998991 0.00583224
0.00518487 0.00757591 0.00503169
0.00564705 0.00998985 0.00421439
0.00697748 0.00998579 0.00692468
0.00302103 0.00691334 0.00999924
0.00415689 0.00432469 2.08786e-07
0.00282169 -4.0532e-06 0.0044047
0.00313804 -4.52322e-06 0.00582545
0.00997939 0.00416971 0.00112381
0.00363767 0.00833324 0.00158816
0.00998151 0.00430446 0.00416429
0.00665624 0.00576098 -2.38156e-07
0.00859265 0.00997963 0.00250541
0 0.00848692 0.00262374
0.00135209 0.00999966 0.00405987
0 0.00885053 0.00419359
0.00419437 0.00884439 -6.73892e-08
0.00420822 0.00999367 0.00168748
0.00498971 0.00478451 0.00237865
0.00720374 0.00450672 -2.55685e-07
0.00561668 -1.2007e-05 0.00421519
0.00564507 -1.19385e-05 0.00583268
0.00131355 0.00999967 0.00241806
0.00854436 0.0024238 -5.30498e-07
0.00998395 0.00449684 0.00721614
0.00711994 0.00998517 0.00499867
0.00573083 0.0033543 0.00999815
0.00244575 -3.18859e-06 0.00135671
0.00997678 0.00241901 0.0085665
0.0023918 0.0047898 0.00499988
0.00581946 0.00432 6.48119e-08
0.0083046 0.00578934 -8.18182e-07
0.0054847 0.00999064 0.00721921
0.00998241 0.00430504 0.00583045
0.00540681 0.00999043 0.00277495
0.00708487 -1.67358e-05 0.00499937
0.00283902 0.00999735 0.00440428
0 0.00452174 0.00721958
0.00452057 0.0072146 0.00999856
0.00545496 -1.11595e-05 0.0072192
0.00359796 0.00507051 0.00359642
0.00425616 0.0099938 0.00500769
0.0042305 -7.7164e-06 0.00500834
0.00366635 0.00521349 0.00617432
0 0.005744 0.00499998
0 0.00433013 0.00583333
0.00499211 0.00573721 9.16603e-08
0.00498015 0.00633243 0.00355344
0.00537698 -1.1356e-05 0.00277585
0.00998734 0.00571929 0.00499731
0.00368786 0.00640443 0.00484371
0.00573653 0.00499135 0.00999807
0.00998563 0.00574921 0.00158541
0 0.00666667 0
0.00858466 0.0075011 -1.16243e-06
0.00331633 -5.99051e-06 7.1757e-07
0 0.01 0.00666667
0.00500665 0.00999172 0.0099985
0 0.00288419 0.00499914
0.00999221 0.00746421 0.00137267
0.0099884 0.0066415 -1.58548e-06
0 0.005 0.01
0.00498302 0.00287589 1.14452e-07
0 0.005 0
0.00996462 -2.77859e-05 0.00333171
0.0100048 0.00997456 0.0066631
0.00419269 0.00726906 8.96416e-09
0.00997641 0.0028584 0.00499667
0.0049759 -1.07072e-05 6.15788e-07
0 0 0.00666667
0.00379055 0.00361273 0.00522612
0.00497957 -1.01911e-05 0.00999812
0.00996648 -2.75175e-05 0.00666362
0 0 0.005
0.00878312 0.00997871 0.00121853
0.00999715 0.00875446 0.00121822
0.00996552 -2.7607e-05 0.00499768
0.009982 0.00497442 -1.34653e-06
0.00121555 0.00121927 -8.04673e-09
0 0.00122008 0.00122008
0 0.00333333 0.01
0 0.00666667 0.01
0.00877794 0.00875902 -1.39875e-06
0.010003 0.0099742 0.00333078
0.00421903 0.00999375 0.00339925
0.00999382 0.00664232 0.00999577
0 0.00333333 0
0 0.00122008 0.00877992
0.0012151 -8.04605e-07 0.00877968
0.00121628 0.00121953 0.0100001
0.0087871 0.00997928 0.00877659
0.00122009 0.00877947 0.00999987
0 0.00877992 0.00877992
0.0100014 0.00875517 0.00877585
0.00667052 0.00998606 -9.65327e-07
0.00996808 0.00119271 0.00121899
0.00122103 0.00999946 0.00878006
0.00878329 0.0087598 0.00999639
0.00998738 0.00497534 0.00999581
0 0 0.00333333
0.0066365 -1.59072e-05 3.96828e-07
0.00874511 -2.34406e-05 0.00121972
0.001206 -8.51066e-07 0.00121206
0 0.00877992 0.00122008
0.00121983 0.0087794 9.47861e-08
0.00121218 0.00999951 0.00121141
0.00997225 0.0011933 0.00877598
0.00875446 0.00119783 0.00999636
0.00664125 -1.54106e-05 0.00999712
0.00874907 0.00119721 -4.73859e-07
0.00874926 -2.29176e-05 0.00877641
0.00997566 0.00330718 -1.15039e-06
0.00333826 0.00999561 0.00999944
0.00246146 0.00999789 0.00135629
0.00667485 0.00998676 0.0099977
0.00998097 0.00330808 0.00999581
0 0.01 0.005
0.00262362 0.00848464 1.14779e-07
0.0100039 0.0099744 0.00499702
0 0.01 0.00333333
0 0.00166667 0
0.00996373 -2.80346e-05 0.00166563
0 0.00166667 0.01
0 0.00833333 0
0.00999491 0.00830786 -1.8083e-06
0.00996743 -2.75731e-05 0.00832941
0.0100021 0.009974 0.00166457
0.0100057 0.0099746 0.00832937
0.00166902 0.00999853 0.00999986
0 0.01 0.00833333
0.00833643 0.00998017 -1.42224e-06
0.00829896 -2.20718e-05 -1.36447e-07
0.00830426 -2.15277e-05 0.00999634
0.0083414 0.00998076 0.00999672
0 0 0.00833333
0.0100003 0.00830872 0.00999572
0.00165791 -2.09315e-06 2.33327e-07
0 0 0.00166667
0.00333686 0.00999576 -6.02974e-08
0.00997462 0.00164005 0.00999574
0.00996924 0.00163939 -1.00955e-06
0.0016593 -1.70831e-06 0.00999995
0.00166834 0.00999882 4.05228e-08
0 0.01 0.00166667
0.0100068 0.00997464 0.00999579
0 0 0.01
0.0100013 0.00997381 -2.0888e-06
0.00996831 -2.76839e-05 0.00999547
0 0.01 0.01
0.00996288 -2.82343e-05 -7.55906e-07
0 0.01 0
0 0 0
0.00500389 0.00999123 -4.35632e-07
0.00331898 -5.40081e-06 0.00999894
0 0.00833333 0.01

CELLS 343 686
1 0
1 1
1 2
1 3
1 4
1 5
1 6
1 7
1 8
1 9
1 10
1 11
1 12
1 13
1 14
1 15
1 16
1 17
1 18
1 19
1 20
1 21
1 22
1 23
1 24
1 25
1 26
1 27
1 28
1 29
1 30
1 31
1 32
1 33
1 34
1 35
1 36
1 37
1 38
1 39
1 40
1 41
1 42
1 43
1 44
1 45
1 46
1 47
1 48
1 49
1 50
1 51
1 52
1 53
1 54
1 55
1 56
1 57
1 58
1 59
1 60
1 61
1 62
1 63
1 64
1 65
1 66
1 67
1 68
1 69
1 70
1 71
1 72
1 73
1 74
1 75
1 76
1 77
1 78
1 79
1 80
1 81
1 82
1 83
1 84
1 85
1 86
1 87
1 88
1 89
1 90
1 91
1 92
1 93
1 94
1 95
1 96
1 97
1 98
1 99
1 100
1 101
1 102
1 103
1 104
1 105
1 106
1 107
1 108
1 109
1 110
1 111
1 112
1 113
1 114
1 115
1 116
1 117
1 118
1 119
1 120
1 121
1 122
1 123
1 124
1 125
1 126
1 127
1 128
1 129
1 130
1 131
1 132
1 133
1 134
1 135
1 136
1 137
1 138
1 139
1 140
1 141
1 142
1 143
1 144
1 145
1 146
1 147
1 148
1 149
1 150
1 151
1 152
1 153
1 154
1 155
1 156
1 157
1 158
1 159
1 160
1 161
1 162
1 163
1 164
1 165
1 166
1 167
1 168
1 169
1 170
1 171
1 172
1 173
1 174
1 175
1 176
1 177
1 178
1 179
1 180
1 181
1 182
1 183
1 184
1 185
1 186
1 187
1 188
1 189
1 190
1 191
1 192
1 193
1 194
1 195
1 196
1 197
1 198
1 199
1 200
1 201
1 202
1 203
1 204
1 205
1 206
1 207
1 208
1 209
1 210
1 211
1 212
1 213
1 214
1 215
1 216
1 217
1 218
1 219
1 220
1 221
1 222
1 223
1 224
1 225
1 226
1 227
1 228
1 229
1 230
1 231
1 232
1 233
1 234
1 235
1 236
1 237
1 238
1 239
1 240
1 241
1 242
1 243
1 244
1 245
1 246
1 247
1 248
1 249
1 250
1 251
1 252
1 253
1 254
1 255
1 256
1 257
1 258
1 259
1 260
1 261
1 262
1 263
1 264
1 265
1 266
1 267
1 268
1 269
1 270
1 271
1 272
1 273
1 274
1 275
1 276
1 277
1 278
1 279
1 280
1 281
1 282
1 283
1 284
1 285
1 286
1 287
1 288
1 289
1 290
1 291
1 292
1 293
1 294
1 295
1 296
1 297
1 298
1 299
1 300
1 301
1 302
1 303
1 304
1 305
1 306
1 307
1 308
1 309
1 310
1 311
1 312
1 313
1 314
1 315
1 316
1 317
1 318
1 319
1 320
1 321
1 322
1 323
1 324
1 325
1 326
1 327
1 328
1 329
1 330
1 331
1 332
1 333
1 334
1 335
1 336
1 337
1 338
1 339
1 340
1 341
1 342

CELL_TYPES 343
1
1
1
1
1
1
1
1
1
1
1
1
1
1
1
1
1
1
1
1
1
1
1
1
1
1
1
1
1
1
1
1
1
1
1
1
1
1
1
1
1
1
1
1
1
1
1
1
1
1
1
1
1
1
1
1
1
1
1
1
1
1
1
1
1
1
1
1
1
1
1
1
1
1
1
1
1
1
1
1
1
1
1
1
1
1
1
1
1
1
1
1
1
1
1
1
1
1
1
1
1
1
1
1
1
1
1
1
1
1
1
1
1
1
1
1
1
1
1
1
1
1
1
1
1
1
1
1
1
1
1
1
1
1
1
1
1
1
1
1
1
1
1
1
1
1
1
1
1
1
1
1
1
1
1
1
1
1
1
1
1
1
1
1
1
1
1
1
1
1
1
1
1
1
1
1
1
1
1
1
1
1
1
1
1
1
1
1
1
1
1
1
1
1
1
1
1
1
1
1
1
1
1
1
1
1
1
1
1
1
1
1
1
1
1
1
1
1
1
1
1
1
1
1
1
1
1
1
1
1
1
1
1
1
1
1
1
1
1
1
1
1
1
1
1
1
1
1
1
1
1
1
1
1
1
1
1
1
1
1
1
1
1
1
1
1
1
1
1
1
1
1
1
1
1
1
1
1
1
1
1
1
1
1
1
1
1
1
1
1
1
1
1
1
1
1
1
1
1
1
1
1
1
1
1
1
1
1
1
1
1
1
1
1
1
1
1
1
1
1
1
1
1
1
1
1
1
1
1
1
1
1
1
1
1
1
1
1
1
1
1
1
1

POINT_DATA 343
FIELD FieldData 3

ExternalForceID_(#) 1 343 int
0
1
2
3
4
5
6
7
8
9
10
11
12
13
14
15
16
17
18
19
20
21
22
23
24
25
26
27
28
29
30
31
32
33
34
35
36
37
38
39
40
41
42
43
44
45
46
47
48
49
50
51
52
53
54
55
56
57
58
59
60
61
62
63
64
65
66
67
68
69
70
71
72
73
74
75
76
77
78
79
80
81
82
83
84
85
86
87
88
89
90
91
92
93
94
95
96
97
98
99
100
101
102
103
104
105
106
107
108
109
110
111
112
113
114
115
116
117
118
119
120
121
122
123
124
125
126
127
128
129
130
131
132
133
134
135
136
137
138
139
140
141
142
143
144
145
146
147
148
149
150
151
152
153
154
155
156
157
158
159
160
161
162
163
164
165
166
167
168
169
170
171
172
173
174
175
176
177
178
179
180
181
182
183
184
185
186
187
188
189
190
191
192
193
194
195
196
197
198
199
200
201
202
203
204
205
206
207
208
209
210
211
212
213
214
215
216
217
218
219
220
221
222
223
224
225
226
227
228
229
230
231
232
233
234
235
236
237
238
239
240
241
242
243
244
245
246
247
248
249
250
251
252
253
254
255
256
257
258
259
260
261
262
263
264
265
266
267
268
269
270
271
272
273
274
275
276
277
278
279
280
281
282
283
284
285
286
287
288
289
290
291
292
293
294
295
296
297
298
299
300
301
302
303
304
305
306
307
308
309
310
311
312
313
314
315
316
317
318
319
320
321
322
323
324
325
326
327
328
329
330
331
332
333
334
335
336
337
338
339
340
341
342

ExternalForceType_(0/1/2/3/4) 1 343 int
0
0
0
0
0
0
0
0
0
0
0
0
0
0
0
0
0
0
0
0
0
0
0
0
0
0
0
0
0
0
0
0
0
0
0
0
0
0
0
0
0
0
0
0
0
0
0
0
0
0
0
0
0
0
0
0
0
0
0
0
0
0
0
0
0
0
0
0
0
0
0
0
0
0
0
0
0
0
0
0
0
0
0
0
0
0
0
0
0
0
0
0
0
0
0
0
0
0
0
0
0
0
0
0
0
0
0
0
0
0
0
0
0
0
0
0
0
0
0
0
0
0
0
0
0
0
0
0
0
0
0
0
0
0
0
0
0
0
0
0
0
0
0
0
0
0
0
0
0
0
0
0
0
0
0
0
0
0
0
0
0
0
0
0
0
0
0
0
0
0
0
0
0
0
0
0
0
0
0
0
0
0
0
0
0
0
0
0
0
0
0
0
0
0
0
0
0
0
0
0
0
0
0
0
0
0
0
0
0
0
0
0
0
0
0
0
0
0
0
0
0
0
0
0
0
0
0
0
0
0
0
0
0
0
0
0
0
0
0
0
0
0
0
0
0
0
0
0
0
0
0
0
0
0
0
0
0
0
0
0
0
0
0
0
0
0
0
0
0
0
0
0
0
0
0
0
0
0
0
0
0
0
0
0
0
0
0
0
0
0
0
0
0
0
0
0
0
0
0
0
0
0
0
0
0
0
0
0
0
0
0
0
0
0
0
0
0
0
0
0
0
0
0
0
0
0
0
0
0
0
0
0
0
0
0
0
0
0
0
0
0
0
0

ExternalForce_(N) 3 343 double
0 -3.09568e-05 0
0 -0.000138619 0
0 -2.16714e-05 0
0 -0.000168226 0
0 -8.26002e-05 0
0 -8.9203e-05 0
0 -9.74165e-05 0
0 -7.37906e-05 0
0 -6.68156e-05 0
0 -5.47617e-05 0
0 -3.04981e-05 0
0 -0.000105531 0
0 -4.77758e-05 0
0 -0.000161821 0
0 -2.96713e-05 0
0 -7.9067e-05 0
0 -6.57564e-05 0
0 -0.000106704 0
0 -4.11017e-05 0
0 -8.006e-05 0
0 -6.02474e-05 0
0 -0.000115662 0
0 -2.18875e-05 0
0 -4.17098e-05 0
0 -0.000107827 0
0 -7.27379e-05 0
0 -4.13856e-05 0
0 -3.85027e-05 0
0 -3.029e-05 0
0 -0.000128774 0
0 -7.57947e-05 0
0 -0.000162261 0
0 -0.000116775 0
0 -7.15802e-05 0
0 -3.74431e-05 0
0 -0.000108892 0
0 -3.74072e-05 0
0 -0.000136493 0
0 -6.25303e-05 0
0 -7.85756e-05 0
0 -7.52544e-05 0
0 -0.000116589 0
0 -0.000160874 0
0 -2.73339e-05 0
0 -8.7662e-05 0
0 -2.53184e-05 0
0 -7.42972e-05 0
0 -4.15199e-05 0
0 -0.000128792 0
0 -3.72945e-05 0
0 -2.72189e-05 0
0 -7.03157e-05 0
0 -0.000119003 0
0 -5.02041e-05 0
0 -8.04153e-05 0
0 -4.4939e-05 0
0 -2.74192e-05 0
0 -3.19929e-05 0
0 -4.04607e-05 0
0 -2.07889e-05 0
0 -3.28809e-05 0
0 -3.54797e-05 0
0 -0.000153858 0
0 -7.19739e-05 0
0 -8.09026e-05 0
0 -4.90862e-05 0
0 -2.77255e-05 0
0 -7.06591e-05 0
0 -3.20606e-05 0
0 -4.10794e-05 0
0 -1.98932e-05 0
0 -2.37551e-05 0
0 -3.0591e-05 0
0 -5.86107e-05 0
0 -5.75946e-05 0
0 -4.01595e-05 0
0 -5.35099e-05 0
0 -2.24477e-05 0
0 -4.41213e-05 0
0 -4.29866e-05 0
0 -4.42325e-05 0
0 -4.30889e-05 0
0 -4.19155e-05 0
0 -5.21923e-05 0
0 -1.5029e-05 0
0 -2.34331e-05 0
0 -1.9903e-05 0
0 -4.30461e-05 0
0 -3.11931e-05 0
0 -3.08326e-05 0
0 -4.52797e-05 0
0 -5.7648e-05 0
0 -8.02544e-05 0
0 -2.43623e-05 0
0 -0.000150893 0
0 -3.43039e-05 0
0 -7.21258e-05 0
0 -1.97489e-05 0
0 -2.00202e-05 0
0 -7.83017e-05 0
0 -4.32908e-05 0
0 -7.00326e-05 0
0 -1.17841e-05 0
0 -4.93779e-05 0
0 -1.58193e-05 0
0 -4.04762e-05 0
0 -8.57147e-05 0
0 -4.2953e-05 0
0 -7.82027e-05 0
0 -2.09499e-05 0
0 -3.31713e-05 0
0 -9.30599e-05 0
0 -7.26197e-05 0
0 -1.76801e-05 0
0 -2.06228e-05 0
0 -7.8371e-05 0
0 -1.84411e-05 0
0 -7.30662e-05 0
0 -4.11806e-05 0
0 -2.3265e-05 0
0 -4.23503e-05 0
0 -5.94919e-05 0
0 -4.22718e-05 0
0 -2.12723e-05 0
0 -1.86252e-05 0
0 -1.77849e-05 0
0 -3.82356e-05 0
0 -2.39658e-05 0
0 -1.62481e-05 0
0 -7.86148e-05 0
0 -1.61387e-05 0
0 -2.34763e-05 0
0 -2.95637e-05 0
0 -2.93742e-05 0
0 -1.33947e-05 0
0 -1.83735e-05 0
0 -2.05639e-05 0
0 -1.91062e-05 0
0 -1.84053e-05 0
0 -6.25793e-05 0
0 -4.49914e-05 0
0 -1.98914e-05 0
0 -1.58922e-05 0
0 -2.367e-05 0
0 -3.81266e-05 0
0 -4.36518e-05 0
0 -2.25472e-05 0
0 -0.000115119 0
0 -3.05886e-05 0
0 -1.32828e-05 0
0 -3.38507e-05 0
0 -1.78391e-05 0
0 -2.88237e-05 0
0 -1.34771e-05 0
0 -2.36876e-05 0
0 -2.06453e-05 0
0 -2.58912e-05 0
0 -2.10097e-05 0
0 -1.7602e-05 0
0 -3.13896e-05 0
0 -1.34386e-05 0
0 -2.38863e-05 0
0 -2.04203e-05 0
0 -1.33426e-05 0
0 -2.13076e-05 0
0 -1.86316e-05 0
0 -3.10974e-05 0
0 -2.56228e-05 0
0 -2.33161e-05 0
0 -1.57181e-05 0
0 -1.87061e-05 0
0 -5.38771e-05 0
0 -1.84308e-05 0
0 -3.08341e-05 0
0 -2.91652e-05 0
0 -1.16203e-05 0
0 -1.85667e-05 0
0 -2.00287e-05 0
0 -2.68375e-05 0
0 -2.37799e-05 0
0 -3.16945e-05 0
0 -3.13676e-05 0
0 -3.15313e-05 0
0 -1.90796e-05 0
0 -1.58134e-05 0
0 -1.83326e-05 0
0 -3.16308e-05 0
0 -2.07128e-05 0
0 -2.91276e-05 0
0 -6.03597e-05 0
0 -2.26581e-05 0
0 -2.35174e-05 0
0 -2.33506e-05 0
0 -2.59482e-05 0
0 -1.63393e-05 0
0 -1.78912e-05 0
0 -2.02658e-05 0
0 -5.62379e-05 0
0 -2.04507e-05 0
0 -2.14176e-05 0
0 -2.38895e-05 0
0 -3.05955e-05 0
0 -3.11287e-05 0
0 -2.01544e-05 0
0 -1.92198e-05 0
0 -2.99909e-05 0
0 -6.32085e-05 0
0 -2.04829e-05 0
0 -2.67435e-05 0
0 -2.11611e-05 0
0 -1.83262e-05 0
0 -1.96474e-05 0
0 -2.0699e-05 0
0 -2.83503e-05 0
0 -2.27807e-05 0
0 -2.35234e-05 0
0 -1.93874e-05 0
0 -6.29086e-05 0
0 -2.12117e-05 0
0 -3.22943e-05 0
0 -2.06229e-05 0
0 -2.61501e-05 0
0 -1.90721e-05 0
0 -2.86319e-05 0
0 -2.53212e-05 0
0 -2.07681e-05 0
0 -2.05553e-05 0
0 -1.88077e-05 0
0 -6.92631e-05 0
0 -2.20924e-05 0
0 -2.02457e-05 0
0 -6.16224e-05 0
0 -2.08117e-05 0
0 -2.85397e-05 0
0 -2.08875e-05 0
0 -6.32617e-05 0
0 -1.39008e-05 0
0 -2.0289e-05 0
0 -6.45558e-05 0
0 -2.47785e-05 0
0 -2.35177e-05 0
0 -7.28089e-06 0
0 -2.18143e-05 0
0 -6.93323e-06 0
0 -6.87344e-06 0
0 -8.76768e-06 0
0 -2.48719e-05 0
0 -2.22231e-05 0
0 -1.31068e-05 0
0 -7.69816e-06 0
0 -2.27889e-05 0
0 -5.95166e-06 0
0 -6.55579e-06 0
0 -6.71305e-06 0
0 -2.46468e-05 0
0 -2.27228e-05 0
0 -7.6878e-06 0
0 -6.67903e-06 0
0 -6.10861e-05 0
0 -6.6189e-06 0
0 -6.52665e-06 0
0 -6.87836e-06 0
0 -1.78856e-05 0
0 -1.87072e-05 0
0 -6.73674e-06 0
0 -6.91401e-06 0
0 -1.82903e-05 0
0 -2.2423e-05 0
0 -6.67521e-06 0
0 -7.02401e-06 0
0 -1.78908e-05 0
0 -5.89658e-06 0
0 -1.98938e-05 0
0 -7.3162e-06 0
0 -5.63509e-06 0
0 -1.76631e-05 0
0 -1.42638e-05 0
0 -2.22707e-05 0
0 -1.77204e-05 0
0 -2.11264e-05 0
0 -1.75686e-05 0
0 -1.76047e-05 0
0 -6.69346e-06 0
0 -2.20467e-05 0
0 -1.42479e-05 0
0 -1.76144e-05 0
0 -6.84615e-06 0
0 -6.12404e-06 0
0 -6.50125e-06 0
0 -1.41879e-05 0
0 -1.37476e-05 0
0 -2.11168e-05 0
0 -1.79377e-05 0
0 -1.37282e-05 0
0 -1.41198e-05 0
0 -2.15061e-05 0
0 -6.84475e-06 0
0 -1.74349e-05 0
0 -1.75758e-05 0
0 -6.41828e-06 0
0 -7.20025e-06 0
0 -2.30432e-05 0
0 -6.96894e-06 0
0 -6.44499e-06 0
0 -6.14414e-06 0
0 -2.14766e-05 0
0 -6.00855e-06 0
0 -5.92427e-06 0
0 -5.81567e-06 0
0 -5.02303e-06 0
0 -5.01945e-06 0
0 -4.85271e-06 0
0 -4.87573e-06 0
0 -4.8684e-06 0
0 -5.22951e-06 0
0 -4.84801e-06 0
0 -4.88396e-06 0
0 -4.77612e-06 0
0 -4.81304e-06 0
0 -4.85251e-06 0
0 -4.8555e-06 0
0 -4.82575e-06 0
0 -4.80313e-06 0
0 -4.86923e-06 0
0 -4.85781e-06 0
0 -4.73027e-06 0
0 -1.08748e-05 0
0 -5.22863e-06 0
0 -5.34413e-06 0
0 -5.26459e-06 0
0 -5.05624e-06 0
0 -4.92238e-06 0
0 -5.43253e-06 0
0 -5.43253e-06 0
0 -5.43253e-06 0
0 -5.43253e-06 0
0 -5.43253e-06 0
0 -5.43253e-06 0
0 -5.40321e-06 0
0 -5.40321e-06 0
0 -7.3113e-06 0
0 -6.98147e-06 0
0 -4.8949e-06 0

