# vtk DataFile Version 4.2
vtk output
ASCII
DATASET UNSTRUCTURED_GRID

POINTS 343 double
0.00112144 0.00419491 1.03448e-07
0.00216919 0.00498258 0.00217524
0 0.00419538 0.00112517
0.00192864 0.00195448 0.00194208
0.005167 0.00240722 0.00503093
0.0051704 0.00383048 0.00639597
0.00761867 0.00477623 0.00499564
0.00622025 0.00485099 0.00368984
0.00683442 0.00328926 0.006911
0.00498823 0.00499295 0.00499859
0.00418125 0.00111834 0.00999761
0.00528047 0.00208065 0.00790208
0.00419032 -7.28565e-06 0.00831581
0.00201199 0.00200252 0.00803311
0.00428685 0.00253318 0.00999758
0.00695419 0.00644754 0.00694381
0.00641017 0.00618308 0.00518077
0.00225952 0.00218469 0.00514593
0 0.00143586 0.00417514
0.00159357 0.00346615 0.004037
0.00683239 0.00319455 0.00315915
0.00774198 0.00221375 0.0050605
0 0.00270918 0.00154168
0.00415411 0.00142868 -5.77905e-07
0.00500385 0.00218814 0.00219673
0.00395892 0.00352696 0.00160233
0.00134471 -6.6411e-07 0.00405996
0.00418013 -7.78667e-06 0.00168742
0.00262293 0.00695173 -9.09122e-08
0.0019363 0.00805273 0.00194482
0.00408355 0.0062483 0.00164429
0.0080009 0.00798683 0.00799289
0.00796346 0.00481642 0.00801796
0.00838467 0.00608047 0.00594365
0.00999286 0.0088264 0.00418641
0.00757241 0.00763643 0.00496037
0.00856097 0.00998058 0.00416233
0.00796935 0.00797186 0.00201261
0.00353496 0.00303674 0.00695885
0.00443697 0.00366224 0.0083225
0.003891 0.00160069 0.00596834
0.00500387 0.0076687 0.0076749
0.00198875 0.00800796 0.0079895
0.0028258 0.0099973 0.0071268
0.00391415 0.00839973 0.00595706
0 0.00695361 0.00262895
0.00164527 0.0062393 0.00408783
0 0.0040177 0.00850214
0.0023142 0.00498576 0.00766128
0.00143312 0.00417449 0.0099999
0.00717486 0.00711878 0.0099939
0.00611725 0.0059713 0.00841452
0.00205034 0.00794143 0.00474173
0.00304208 0.00694302 0.00646732
0.00158608 0.00607837 0.00592593
0.00998721 0.0057847 0.00830821
0 0.00718191 0.00711644
0.00158284 0.00577348 1.95423e-08
0 0.00577432 0.00158701
0.00999066 0.00715838 0.00710787
0.00286805 0.00334945 0.009999
0.00996537 0.0014097 0.00416856
0.00803013 0.00194346 0.00197565
0.00838446 0.0035028 0.00399426
0.00372379 0.00164816 0.00412779
0.00150824 0.00999963 0.00581497
0.00280906 -3.57769e-06 0.00712734
0.00610921 0.00417198 0.00837301
0.00998696 0.00725037 0.00418873
0.0085245 -2.17289e-05 0.00416326
0.00333806 0.00286979 -3.18004e-07
0.00270106 0.00153893 0.00999907
0.00281677 -4.01638e-06 0.00283176
0.00479673 0.00519442 0.00755256
0.00315604 0.00314642 0.003167
0 0.00849157 0.00581511
0.00486158 0.00366985 0.00378506
0.00153561 0.00270866 1.74479e-08
0.00579967 0.00831648 0.00999554
0.00598326 0.00998965 0.00850203
0.0042127 0.00999422 0.00831587
0.00401769 0.00849863 0.00999754
0.00999373 0.00846777 0.00580712
0.00314479 0.00683366 0.00315051
0 0.00748929 0.00137438
0.00137181 0.00748895 3.78241e-08
0 0.00287343 0.00335182
0 0.00580816 0.00831736
0 0.00429792 0.00253898
0.00253062 0.00429599 -6.99797e-08
0.00143373 0.00581918 0.00999991
0.00517312 0.006469 0.00639841
0.00360257 0.00650956 0.00823282
0.00693338 0.00261362 0.00999445
0.00799884 0.00194043 0.00802961
0.0069377 -1.62953e-05 0.00307933
0.00599709 0.00165281 0.00361087
0.00996952 0.00284825 0.00334559
0 0.00140616 0.00256446
0.00637037 0.00821728 0.00641769
0.00579085 0.00142357 -1.24649e-06
0.00601671 0.00354145 0.00160131
0.00315487 0.00999659 0.00582462
0.00855785 0.0099808 0.00582715
0.00255141 0.00140306 -9.59236e-08
0.00594537 -1.30215e-05 0.0014927
0.00627517 0.00827726 0.0036148
0.00852149 -2.15293e-05 0.00582777
0.0061851 0.00166097 0.00636228
0.00140226 0.00256404 0.00999995
0.00710308 0.00716842 -2.81161e-06
0.00515987 0.00768266 0.00216741
0.00593042 0.00608434 0.00159992
0 0.00686719 0.00578184
0.00996311 0.00137975 0.00255867
0.00177154 0.00360991 0.00640774
0.0099895 0.00846274 0.00261722
0.00839804 0.00617141 0.0041279
0.00597612 0.00998896 0.0014916
0.00694102 -1.5906e-05 0.00692242
0.00996764 0.00140954 0.00581216
0.00837647 0.00355476 0.00605527
0.00150137 -8.06259e-07 0.00581514
0 0.0013659 0.00748679
0.00136344 -6.46738e-07 0.0075289
0.00998761 0.00684355 0.00577396
0.00580777 0.00848162 -1.87484e-06
0 0.0075208 0.00859127
0.00136492 0.0074865 0.00999979
0.00422722 0.00820056 0.00362741
0.00859299 0.00998069 0.0075052
0.00999672 0.00860656 0.00751745
0.00575657 0.00157601 0.00999582
0.00724629 0.00417427 0.00999399
0 0.0057735 0.00666667
0.00136954 0.00999955 0.0075289
0 0.00863025 0.00752641
0.00854896 -2.21956e-05 0.00250336
0.00998371 0.0069296 0.0026226
0.00844321 0.00632386 0.00215856
0.00850047 0.005806 0.0099923
0.00746703 0.00135753 0.00999362
0.00855647 -2.17088e-05 0.00750544
0.00996965 0.00134003 0.00747826
0 0.00143551 0.00581971
0.0059528 -1.24223e-05 0.00850206
0.00419086 -7.77624e-06 0.0033992
0.00791338 0.00469104 0.00203085
0.00997368 0.00427347 0.00253296
0.0042292 0.009994 0.00666502
0.00283361 0.00999737 0.00283159
0.00130617 -7.32492e-07 0.00241833
0 0.00727418 0.00419576
0.00998473 0.00574995 0.00665836
0.00697118 0.0099859 0.00307833
0.00750823 0.00862229 0.00999343
0 0.00574334 0.00336387
0 0.0043297 0.00416652
0.00686253 0.00577226 0.00999445
0.00997494 0.00299744 0.006907
0.00420541 -7.50123e-06 0.00666542
0.00247955 0.00999767 0.00861091
0.00745238 0.00134832 -2.53817e-06
0.00577072 0.00665819 0.00999556
0.00999402 0.00749738 0.00858188
0.00860547 0.00753547 0.00999207
0.0068879 0.00300797 -2.09493e-06
0.00335474 0.0057406 -2.56413e-07
0.00751707 0.00861479 -3.38023e-06
0.00751122 0.00998373 0.00138367
0.00576986 0.00685811 -1.78403e-06
0.0069624 0.00635821 0.00303036
0.00747661 -1.85845e-05 0.00138494
0.00288079 0.00499734 0.00999885
0.00432597 0.00582899 0.00999727
0.00432212 0.0041619 0.00999734
0.00752005 0.00998437 0.00860988
0.00246507 -2.95408e-06 0.00861117
0.00998002 0.00571946 0.00335741
0 0.00302218 0.00691532
0.00998075 0.00399369 0.008493
0.00847419 0.00399831 -3.60337e-06
0.0099666 0.00268363 0.00153626
0 0.00244495 0.00857025
0.00244591 0.00856835 0.00999891
0.00748556 -1.79127e-05 0.00860985
0.00846706 0.0026046 0.00999234
0.00883613 0.00417419 0.00999185
0.0056719 0.00999022 0.00583064
0.00518146 0.00757632 0.00503051
0.00564254 0.00999016 0.00421301
0.00697436 0.00998625 0.00692202
0.00302079 0.00691344 0.00999852
0.00415236 0.00432492 -5.46881e-07
0.00282016 -4.09197e-06 0.00440445
0.00313671 -4.56688e-06 0.00582512
0.00997155 0.00417061 0.00111974
0.00363379 0.00833341 0.00158756
0.00997597 0.00430541 0.00415974
0.00664922 0.00576155 -2.13802e-06
0.00858562 0.00998021 0.0025021
0 0.00848692 0.00262374
0.00135095 0.00999964 0.00405983
0 0.00885053 0.00419359
0.00418917 0.00884459 -8.89269e-07
0.00420355 0.00999384 0.00168669
0.00498545 0.00478484 0.0023776
0.00719651 0.00450732 -2.45353e-06
0.00561348 -1.19264e-05 0.00421388
0.00564294 -1.1826e-05 0.00583115
0.00131225 0.00999965 0.00241807
0.00853645 0.00242439 -3.50929e-06
0.00998087 0.00449783 0.00721103
0.00711537 0.00998563 0.00499619
0.005731 0.00335478 0.00999587
0.00244376 -3.31115e-06 0.00135653
0.00997503 0.00241987 0.00856119
0.0023903 0.00478986 0.00499969
0.0058134 0.00432042 -1.44079e-06
0.00829642 0.00579006 -3.74937e-06
0.00548212 0.00999094 0.00721751
0.00997822 0.00430602 0.0058256
0.00540164 0.00999071 0.0027737
0.00708157 -1.65365e-05 0.00499696
0.00283653 0.00999738 0.00440405
0 0.00452174 0.00721958
0.00452027 0.00721494 0.00999704
0.00545375 -1.10361e-05 0.00721755
0.00359528 0.0050707 0.00359601
0.00425286 0.00999395 0.00500696
0.00422844 -7.71211e-06 0.00500769
0.00366442 0.00521369 0.00617378
0 0.005744 0.00499998
0 0.00433013 0.00583333
0.00498656 0.00573754 -1.03156e-06
0.00497621 0.00633282 0.00355247
0.00537319 -1.13144e-05 0.00277464
0.00998228 0.00572033 0.00499261
0.00368531 0.00640462 0.00484326
0.00573647 0.00499187 0.00999575
0.00997791 0.00575019 0.00158127
0 0.00666667 0
0.00857613 0.00750191 -4.30737e-06
0.00331308 -6.04727e-06 2.77753e-07
0 0.01 0.00666667
0.00500604 0.00999196 0.00999669
0 0.00288419 0.00499914
0.00998417 0.00746513 0.00136853
0.00997948 0.00664247 -5.67908e-06
0 0.005 0.01
0.00497791 0.00287613 -9.48708e-07
0 0.005 0
0.00995888 -2.73689e-05 0.00332735
0.0100008 0.00997528 0.00665804
0.00418771 0.00726929 -7.93259e-07
0.00997172 0.00285924 0.00499198
0.00497104 -1.07375e-05 -3.93332e-07
0 0 0.00666667
0.00378846 0.00361294 0.00522562
0.00498005 -1.01716e-05 0.00999623
0.0099634 -2.70688e-05 0.00665865
0 0 0.005
0.00877512 0.00997927 0.00121516
0.00998887 0.00875532 0.00121405
0.00996109 -2.71811e-05 0.00499301
0.00997329 0.0049753 -5.38544e-06
0.0012145 0.00121928 -7.86978e-09
0 0.00122008 0.00122008
0 0.00333333 0.01
0 0.00666667 0.01
0.00876924 0.00875972 -4.70393e-06
0.00999624 0.00997485 0.0033263
0.00421506 0.00999392 0.00339861
0.00999275 0.00664338 0.00999025
0 0.00333333 0
0 0.00122008 0.00877992
0.00121483 -8.15099e-07 0.0087796
0.0012161 0.00121953 0.0100001
0.00878502 0.00997997 0.00877212
0.00121968 0.0087795 0.00999981
0 0.00877992 0.00877992
0.00999909 0.00875617 0.00877045
0.00666285 0.00998638 -3.02846e-06
0.00996064 0.0011933 0.00121495
0.00122042 0.00999942 0.00877995
0.00878234 0.0087607 0.00999185
0.00998651 0.00497639 0.0099903
0 0 0.00333333
0.00663028 -1.58047e-05 -1.44965e-06
0.00873826 -2.31381e-05 0.00121655
0.00120507 -9.19716e-07 0.00121201
0 0.00877992 0.00122008
0.00121842 0.00877936 8.62964e-08
0.00121086 0.00999949 0.00121136
0.0099708 0.00119401 0.00877062
0.00875438 0.00119841 0.00999182
0.00664175 -1.52698e-05 0.00999408
0.00874121 0.00119768 -3.55973e-06
0.00874833 -2.25e-05 0.008772
0.00996715 0.00330801 -5.13708e-06
0.00333772 0.00999574 0.00999855
0.00245856 0.00999791 0.00135607
0.00667398 0.00998723 0.00999473
0.0099803 0.00330903 0.00999031
0 0.01 0.005
0.00262026 0.00848465 -1.3603e-07
0.00999844 0.00997508 0.00499231
0 0.01 0.00333333
0 0.00166667 0
0.00995672 -2.76451e-05 0.00166155
0 0.00166667 0.01
0 0.00833333 0
0.00998585 0.00830872 -5.90892e-06
0.0099657 -2.70948e-05 0.00832411
0.00999411 0.00997463 0.00166032
0.010003 0.00997535 0.00832399
0.0016685 0.00999851 0.00999962
0 0.01 0.00833333
0.00832784 0.00998064 -4.51572e-06
0.00829151 -2.18649e-05 -2.92129e-06
0.00830441 -2.1208e-05 0.00999206
0.00834038 0.00998139 0.00999251
0 0 0.00833333
0.00999911 0.00830976 0.00999018
0.00165645 -2.17076e-06 1.40294e-07
0 0 0.00166667
0.00333245 0.00999582 -5.65587e-07
0.00997412 0.0016408 0.00999023
0.0099609 0.00164 -4.95151e-06
0.00165921 -1.73128e-06 0.00999974
0.00166623 0.00999879 -7.8358e-08
0 0.01 0.00166667
0.0100054 0.00997546 0.00999025
0 0 0.01
0.00999212 0.00997441 -6.2557e-06
0.00996795 -2.72259e-05 0.00998991
0 0.01 0.01
0.00995469 -2.78246e-05 -4.6559e-06
0 0.01 0
0 0 0
0.00499765 0.00999144 -1.6083e-06
0.00331946 -5.48567e-06 0.00999801
0 0.00833333 0.01

CELLS 343 686
1 0
1 1
1 2
1 3
1 4
1 5
1 6
1 7
1 8
1 9
1 10
1 11
1 12
1 13
1 14
1 15
1 16
1 17
1 18
1 19
1 20
1 21
1 22
1 23
1 24
1 25
1 26
1 27
1 28
1 29
1 30
1 31
1 32
1 33
1 34
1 35
1 36
1 37
1 38
1 39
1 40
1 41
1 42
1 43
1 44
1 45
1 46
1 47
1 48
1 49
1 50
1 51
1 52
1 53
1 54
1 55
1 56
1 57
1 58
1 59
1 60
1 61
1 62
1 63
1 64
1 65
1 66
1 67
1 68
1 69
1 70
1 71
1 72
1 73
1 74
1 75
1 76
1 77
1 78
1 79
1 80
1 81
1 82
1 83
1 84
1 85
1 86
1 87
1 88
1 89
1 90
1 91
1 92
1 93
1 94
1 95
1 96
1 97
1 98
1 99
1 100
1 101
1 102
1 103
1 104
1 105
1 106
1 107
1 108
1 109
1 110
1 111
1 112
1 113
1 114
1 115
1 116
1 117
1 118
1 119
1 120
1 121
1 122
1 123
1 124
1 125
1 126
1 127
1 128
1 129
1 130
1 131
1 132
1 133
1 134
1 135
1 136
1 137
1 138
1 139
1 140
1 141
1 142
1 143
1 144
1 145
1 146
1 147
1 148
1 149
1 150
1 151
1 152
1 153
1 154
1 155
1 156
1 157
1 158
1 159
1 160
1 161
1 162
1 163
1 164
1 165
1 166
1 167
1 168
1 169
1 170
1 171
1 172
1 173
1 174
1 175
1 176
1 177
1 178
1 179
1 180
1 181
1 182
1 183
1 184
1 185
1 186
1 187
1 188
1 189
1 190
1 191
1 192
1 193
1 194
1 195
1 196
1 197
1 198
1 199
1 200
1 201
1 202
1 203
1 204
1 205
1 206
1 207
1 208
1 209
1 210
1 211
1 212
1 213
1 214
1 215
1 216
1 217
1 218
1 219
1 220
1 221
1 222
1 223
1 224
1 225
1 226
1 227
1 228
1 229
1 230
1 231
1 232
1 233
1 234
1 235
1 236
1 237
1 238
1 239
1 240
1 241
1 242
1 243
1 244
1 245
1 246
1 247
1 248
1 249
1 250
1 251
1 252
1 253
1 254
1 255
1 256
1 257
1 258
1 259
1 260
1 261
1 262
1 263
1 264
1 265
1 266
1 267
1 268
1 269
1 270
1 271
1 272
1 273
1 274
1 275
1 276
1 277
1 278
1 279
1 280
1 281
1 282
1 283
1 284
1 285
1 286
1 287
1 288
1 289
1 290
1 291
1 292
1 293
1 294
1 295
1 296
1 297
1 298
1 299
1 300
1 301
1 302
1 303
1 304
1 305
1 306
1 307
1 308
1 309
1 310
1 311
1 312
1 313
1 314
1 315
1 316
1 317
1 318
1 319
1 320
1 321
1 322
1 323
1 324
1 325
1 326
1 327
1 328
1 329
1 330
1 331
1 332
1 333
1 334
1 335
1 336
1 337
1 338
1 339
1 340
1 341
1 342

CELL_TYPES 343
1
1
1
1
1
1
1
1
1
1
1
1
1
1
1
1
1
1
1
1
1
1
1
1
1
1
1
1
1
1
1
1
1
1
1
1
1
1
1
1
1
1
1
1
1
1
1
1
1
1
1
1
1
1
1
1
1
1
1
1
1
1
1
1
1
1
1
1
1
1
1
1
1
1
1
1
1
1
1
1
1
1
1
1
1
1
1
1
1
1
1
1
1
1
1
1
1
1
1
1
1
1
1
1
1
1
1
1
1
1
1
1
1
1
1
1
1
1
1
1
1
1
1
1
1
1
1
1
1
1
1
1
1
1
1
1
1
1
1
1
1
1
1
1
1
1
1
1
1
1
1
1
1
1
1
1
1
1
1
1
1
1
1
1
1
1
1
1
1
1
1
1
1
1
1
1
1
1
1
1
1
1
1
1
1
1
1
1
1
1
1
1
1
1
1
1
1
1
1
1
1
1
1
1
1
1
1
1
1
1
1
1
1
1
1
1
1
1
1
1
1
1
1
1
1
1
1
1
1
1
1
1
1
1
1
1
1
1
1
1
1
1
1
1
1
1
1
1
1
1
1
1
1
1
1
1
1
1
1
1
1
1
1
1
1
1
1
1
1
1
1
1
1
1
1
1
1
1
1
1
1
1
1
1
1
1
1
1
1
1
1
1
1
1
1
1
1
1
1
1
1
1
1
1
1
1
1
1
1
1
1
1
1
1
1
1
1
1
1
1
1
1
1
1
1
1
1
1
1
1
1
1
1
1
1
1
1
1
1
1
1
1
1

POINT_DATA 343
FIELD FieldData 3

ExternalForceID_(#) 1 343 int
0
1
2
3
4
5
6
7
8
9
10
11
12
13
14
15
16
17
18
19
20
21
22
23
24
25
26
27
28
29
30
31
32
33
34
35
36
37
38
39
40
41
42
43
44
45
46
47
48
49
50
51
52
53
54
55
56
57
58
59
60
61
62
63
64
65
66
67
68
69
70
71
72
73
74
75
76
77
78
79
80
81
82
83
84
85
86
87
88
89
90
91
92
93
94
95
96
97
98
99
100
101
102
103
104
105
106
107
108
109
110
111
112
113
114
115
116
117
118
119
120
121
122
123
124
125
126
127
128
129
130
131
132
133
134
135
136
137
138
139
140
141
142
143
144
145
146
147
148
149
150
151
152
153
154
155
156
157
158
159
160
161
162
163
164
165
166
167
168
169
170
171
172
173
174
175
176
177
178
179
180
181
182
183
184
185
186
187
188
189
190
191
192
193
194
195
196
197
198
199
200
201
202
203
204
205
206
207
208
209
210
211
212
213
214
215
216
217
218
219
220
221
222
223
224
225
226
227
228
229
230
231
232
233
234
235
236
237
238
239
240
241
242
243
244
245
246
247
248
249
250
251
252
253
254
255
256
257
258
259
260
261
262
263
264
265
266
267
268
269
270
271
272
273
274
275
276
277
278
279
280
281
282
283
284
285
286
287
288
289
290
291
292
293
294
295
296
297
298
299
300
301
302
303
304
305
306
307
308
309
310
311
312
313
314
315
316
317
318
319
320
321
322
323
324
325
326
327
328
329
330
331
332
333
334
335
336
337
338
339
340
341
342

ExternalForceType_(0/1/2/3/4) 1 343 int
0
0
0
0
0
0
0
0
0
0
0
0
0
0
0
0
0
0
0
0
0
0
0
0
0
0
0
0
0
0
0
0
0
0
0
0
0
0
0
0
0
0
0
0
0
0
0
0
0
0
0
0
0
0
0
0
0
0
0
0
0
0
0
0
0
0
0
0
0
0
0
0
0
0
0
0
0
0
0
0
0
0
0
0
0
0
0
0
0
0
0
0
0
0
0
0
0
0
0
0
0
0
0
0
0
0
0
0
0
0
0
0
0
0
0
0
0
0
0
0
0
0
0
0
0
0
0
0
0
0
0
0
0
0
0
0
0
0
0
0
0
0
0
0
0
0
0
0
0
0
0
0
0
0
0
0
0
0
0
0
0
0
0
0
0
0
0
0
0
0
0
0
0
0
0
0
0
0
0
0
0
0
0
0
0
0
0
0
0
0
0
0
0
0
0
0
0
0
0
0
0
0
0
0
0
0
0
0
0
0
0
0
0
0
0
0
0
0
0
0
0
0
0
0
0
0
0
0
0
0
0
0
0
0
0
0
0
0
0
0
0
0
0
0
0
0
0
0
0
0
0
0
0
0
0
0
0
0
0
0
0
0
0
0
0
0
0
0
0
0
0
0
0
0
0
0
0
0
0
0
0
0
0
0
0
0
0
0
0
0
0
0
0
0
0
0
0
0
0
0
0
0
0
0
0
0
0
0
0
0
0
0
0
0
0
0
0
0
0
0
0
0
0
0
0
0
0
0
0
0
0
0
0
0
0
0
0
0
0
0
0
0
0

ExternalForce_(N) 3 343 double
0 -3.09568e-05 0
0 -0.000138619 0
0 -2.16714e-05 0
0 -0.000168226 0
0 -8.26002e-05 0
0 -8.9203e-05 0
0 -9.74165e-05 0
0 -7.37906e-05 0
0 -6.68156e-05 0
0 -5.47617e-05 0
0 -3.04981e-05 0
0 -0.000105531 0
0 -4.77758e-05 0
0 -0.000161821 0
0 -2.96713e-05 0
0 -7.9067e-05 0
0 -6.57564e-05 0
0 -0.000106704 0
0 -4.11017e-05 0
0 -8.006e-05 0
0 -6.02474e-05 0
0 -0.000115662 0
0 -2.18875e-05 0
0 -4.17098e-05 0
0 -0.000107827 0
0 -7.27379e-05 0
0 -4.13856e-05 0
0 -3.85027e-05 0
0 -3.029e-05 0
0 -0.000128774 0
0 -7.57947e-05 0
0 -0.000162261 0
0 -0.000116775 0
0 -7.15802e-05 0
0 -3.74431e-05 0
0 -0.000108892 0
0 -3.74072e-05 0
0 -0.000136493 0
0 -6.25303e-05 0
0 -7.85756e-05 0
0 -7.52544e-05 0
0 -0.000116589 0
0 -0.000160874 0
0 -2.73339e-05 0
0 -8.7662e-05 0
0 -2.53184e-05 0
0 -7.42972e-05 0
0 -4.15199e-05 0
0 -0.000128792 0
0 -3.72945e-05 0
0 -2.72189e-05 0
0 -7.03157e-05 0
0 -0.000119003 0
0 -5.02041e-05 0
0 -8.04153e-05 0
0 -4.4939e-05 0
0 -2.74192e-05 0
0 -3.19929e-05 0
0 -4.04607e-05 0
0 -2.07889e-05 0
0 -3.28809e-05 0
0 -3.54797e-05 0
0 -0.000153858 0
0 -7.19739e-05 0
0 -8.09026e-05 0
0 -4.90862e-05 0
0 -2.77255e-05 0
0 -7.06591e-05 0
0 -3.20606e-05 0
0 -4.10794e-05 0
0 -1.98932e-05 0
0 -2.37551e-05 0
0 -3.0591e-05 0
0 -5.86107e-05 0
0 -5.75946e-05 0
0 -4.01595e-05 0
0 -5.35099e-05 0
0 -2.24477e-05 0
0 -4.41213e-05 0
0 -4.29866e-05 0
0 -4.42325e-05 0
0 -4.30889e-05 0
0 -4.19155e-05 0
0 -5.21923e-05 0
0 -1.5029e-05 0
0 -2.34331e-05 0
0 -1.9903e-05 0
0 -4.30461e-05 0
0 -3.11931e-05 0
0 -3.08326e-05 0
0 -4.52797e-05 0
0 -5.7648e-05 0
0 -8.02544e-05 0
0 -2.43623e-05 0
0 -0.000150893 0
0 -3.43039e-05 0
0 -7.21258e-05 0
0 -1.97489e-05 0
0 -2.00202e-05 0
0 -7.83017e-05 0
0 -4.32908e-05 0
0 -7.00326e-05 0
0 -1.17841e-05 0
0 -4.93779e-05 0
0 -1.58193e-05 0
0 -4.04762e-05 0
0 -8.57147e-05 0
0 -4.2953e-05 0
0 -7.82027e-05 0
0 -2.09499e-05 0
0 -3.31713e-05 0
0 -9.30599e-05 0
0 -7.26197e-05 0
0 -1.76801e-05 0
0 -2.06228e-05 0
0 -7.8371e-05 0
0 -1.84411e-05 0
0 -7.30662e-05 0
0 -4.11806e-05 0
0 -2.3265e-05 0
0 -4.23503e-05 0
0 -5.94919e-05 0
0 -4.22718e-05 0
0 -2.12723e-05 0
0 -1.86252e-05 0
0 -1.77849e-05 0
0 -3.82356e-05 0
0 -2.39658e-05 0
0 -1.62481e-05 0
0 -7.86148e-05 0
0 -1.61387e-05 0
0 -2.34763e-05 0
0 -2.95637e-05 0
0 -2.93742e-05 0
0 -1.33947e-05 0
0 -1.83735e-05 0
0 -2.05639e-05 0
0 -1.91062e-05 0
0 -1.84053e-05 0
0 -6.25793e-05 0
0 -4.49914e-05 0
0 -1.98914e-05 0
0 -1.58922e-05 0
0 -2.367e-05 0
0 -3.81266e-05 0
0 -4.36518e-05 0
0 -2.25472e-05 0
0 -0.000115119 0
0 -3.05886e-05 0
0 -1.32828e-05 0
0 -3.38507e-05 0
0 -1.78391e-05 0
0 -2.88237e-05 0
0 -1.34771e-05 0
0 -2.36876e-05 0
0 -2.06453e-05 0
0 -2.58912e-05 0
0 -2.10097e-05 0
0 -1.7602e-05 0
0 -3.13896e-05 0
0 -1.34386e-05 0
0 -2.38863e-05 0
0 -2.04203e-05 0
0 -1.33426e-05 0
0 -2.13076e-05 0
0 -1.86316e-05 0
0 -3.10974e-05 0
0 -2.56228e-05 0
0 -2.33161e-05 0
0 -1.57181e-05 0
0 -1.87061e-05 0
0 -5.38771e-05 0
0 -1.84308e-05 0
0 -3.08341e-05 0
0 -2.91652e-05 0
0 -1.16203e-05 0
0 -1.85667e-05 0
0 -2.00287e-05 0
0 -2.68375e-05 0
0 -2.37799e-05 0
0 -3.16945e-05 0
0 -3.13676e-05 0
0 -3.15313e-05 0
0 -1.90796e-05 0
0 -1.58134e-05 0
0 -1.83326e-05 0
0 -3.16308e-05 0
0 -2.07128e-05 0
0 -2.91276e-05 0
0 -6.03597e-05 0
0 -2.26581e-05 0
0 -2.35174e-05 0
0 -2.33506e-05 0
0 -2.59482e-05 0
0 -1.63393e-05 0
0 -1.78912e-05 0
0 -2.02658e-05 0
0 -5.62379e-05 0
0 -2.04507e-05 0
0 -2.14176e-05 0
0 -2.38895e-05 0
0 -3.05955e-05 0
0 -3.11287e-05 0
0 -2.01544e-05 0
0 -1.92198e-05 0
0 -2.99909e-05 0
0 -6.32085e-05 0
0 -2.04829e-05 0
0 -2.67435e-05 0
0 -2.11611e-05 0
0 -1.83262e-05 0
0 -1.96474e-05 0
0 -2.0699e-05 0
0 -2.83503e-05 0
0 -2.27807e-05 0
0 -2.35234e-05 0
0 -1.93874e-05 0
0 -6.29086e-05 0
0 -2.12117e-05 0
0 -3.22943e-05 0
0 -2.06229e-05 0
0 -2.61501e-05 0
0 -1.90721e-05 0
0 -2.86319e-05 0
0 -2.53212e-05 0
0 -2.07681e-05 0
0 -2.05553e-05 0
0 -1.88077e-05 0
0 -6.92631e-05 0
0 -2.20924e-05 0
0 -2.02457e-05 0
0 -6.16224e-05 0
0 -2.08117e-05 0
0 -2.85397e-05 0
0 -2.08875e-05 0
0 -6.32617e-05 0
0 -1.39008e-05 0
0 -2.0289e-05 0
0 -6.45558e-05 0
0 -2.47785e-05 0
0 -2.35177e-05 0
0 -7.28089e-06 0
0 -2.18143e-05 0
0 -6.93323e-06 0
0 -6.87344e-06 0
0 -8.76768e-06 0
0 -2.48719e-05 0
0 -2.22231e-05 0
0 -1.31068e-05 0
0 -7.69816e-06 0
0 -2.27889e-05 0
0 -5.95166e-06 0
0 -6.55579e-06 0
0 -6.71305e-06 0
0 -2.46468e-05 0
0 -2.27228e-05 0
0 -7.6878e-06 0
0 -6.67903e-06 0
0 -6.10861e-05 0
0 -6.6189e-06 0
0 -6.52665e-06 0
0 -6.87836e-06 0
0 -1.78856e-05 0
0 -1.87072e-05 0
0 -6.73674e-06 0
0 -6.91401e-06 0
0 -1.82903e-05 0
0 -2.2423e-05 0
0 -6.67521e-06 0
0 -7.02401e-06 0
0 -1.78908e-05 0
0 -5.89658e-06 0
0 -1.98938e-05 0
0 -7.3162e-06 0
0 -5.63509e-06 0
0 -1.76631e-05 0
0 -1.42638e-05 0
0 -2.22707e-05 0
0 -1.77204e-05 0
0 -2.11264e-05 0
0 -1.75686e-05 0
0 -1.76047e-05 0
0 -6.69346e-06 0
0 -2.20467e-05 0
0 -1.42479e-05 0
0 -1.76144e-05 0
0 -6.84615e-06 0
0 -6.12404e-06 0
0 -6.50125e-06 0
0 -1.41879e-05 0
0 -1.37476e-05 0
0 -2.11168e-05 0
0 -1.79377e-05 0
0 -1.37282e-05 0
0 -1.41198e-05 0
0 -2.15061e-05 0
0 -6.84475e-06 0
0 -1.74349e-05 0
0 -1.75758e-05 0
0 -6.41828e-06 0
0 -7.20025e-06 0
0 -2.30432e-05 0
0 -6.96894e-06 0
0 -6.44499e-06 0
0 -6.14414e-06 0
0 -2.14766e-05 0
0 -6.00855e-06 0
0 -5.92427e-06 0
0 -5.81567e-06 0
0 -5.02303e-06 0
0 -5.01945e-06 0
0 -4.85271e-06 0
0 -4.87573e-06 0
0 -4.8684e-06 0
0 -5.22951e-06 0
0 -4.84801e-06 0
0 -4.88396e-06 0
0 -4.77612e-06 0
0 -4.81304e-06 0
0 -4.85251e-06 0
0 -4.8555e-06 0
0 -4.82575e-06 0
0 -4.80313e-06 0
0 -4.86923e-06 0
0 -4.85781e-06 0
0 -4.73027e-06 0
0 -1.08748e-05 0
0 -5.22863e-06 0
0 -5.34413e-06 0
0 -5.26459e-06 0
0 -5.05624e-06 0
0 -4.92238e-06 0
0 -5.43253e-06 0
0 -5.43253e-06 0
0 -5.43253e-06 0
0 -5.43253e-06 0
0 -5.43253e-06 0
0 -5.43253e-06 0
0 -5.40321e-06 0
0 -5.40321e-06 0
0 -7.3113e-06 0
0 -6.98147e-06 0
0 -4.8949e-06 0

