# vtk DataFile Version 4.2
vtk output
ASCII
DATASET UNSTRUCTURED_GRID

POINTS 343 double
0.00112166 0.00419504 7.90189e-08
0.00216934 0.00498292 0.0021752
0 0.00419538 0.00112517
0.00192982 0.00195486 0.00194202
0.00517122 0.00241087 0.00503082
0.00517263 0.00383342 0.00639602
0.00761969 0.00478302 0.00499547
0.00622097 0.00485537 0.00368961
0.00683799 0.00329512 0.00691104
0.00498879 0.00499547 0.00499855
0.00418565 0.00112137 0.00999772
0.00528514 0.00208465 0.00790223
0.00419627 -3.95922e-06 0.00831601
0.00201319 0.00200282 0.00803304
0.00428975 0.00253561 0.00999764
0.00695228 0.0064527 0.00694393
0.00640877 0.00618745 0.00518075
0.00226087 0.00218516 0.00514594
0 0.00143586 0.00417514
0.00159412 0.00346629 0.00403704
0.00683598 0.00320061 0.00315875
0.0077477 0.00222181 0.00506026
0 0.00270918 0.00154168
0.00415806 0.00143183 -9.23677e-07
0.00500806 0.00219193 0.00219621
0.00396041 0.00352871 0.00160199
0.00134624 -4.52578e-07 0.00405994
0.00418607 -4.34324e-06 0.00168695
0.00262206 0.00695229 -2.4911e-07
0.00193555 0.00805296 0.00194475
0.00408266 0.00624967 0.00164397
0.00799588 0.00799393 0.00799308
0.00796449 0.00482372 0.00801812
0.00838311 0.00608843 0.00594359
0.00998542 0.00883768 0.00418612
0.00756799 0.00764284 0.00496031
0.00855172 0.00998942 0.00416221
0.00796391 0.00797913 0.0020121
0.00353688 0.00303808 0.00695889
0.00443889 0.00366427 0.00832256
0.00389501 0.00160306 0.00596831
0.00500114 0.00767134 0.00767502
0.00198808 0.00800821 0.00798956
0.00282284 0.00999831 0.00712696
0.0039115 0.00840142 0.00595716
0 0.00695361 0.00262895
0.00164515 0.00623951 0.00408782
0 0.0040177 0.00850214
0.00231425 0.00498612 0.00766132
0.00143329 0.00417466 0.00999992
0.00717169 0.00712441 0.00999421
0.00611628 0.00597519 0.00841469
0.00204973 0.00794166 0.00474175
0.00304138 0.00694364 0.00646739
0.00158599 0.00607854 0.00592594
0.00998605 0.00579584 0.00830835
0 0.00718191 0.00711644
0.00158269 0.0057737 -1.21158e-08
0 0.00577432 0.00158701
0.00998672 0.00716945 0.00710788
0.00286898 0.00335028 0.00999899
0.00997269 0.00142253 0.00416802
0.00803626 0.0019523 0.00197489
0.00838775 0.00351151 0.00399386
0.00372764 0.00165038 0.00412768
0.00150713 0.00999972 0.00581501
0.0028134 -2.00236e-06 0.00712731
0.00611109 0.00417615 0.00837318
0.00998264 0.00726152 0.00418838
0.00853464 -1.11875e-05 0.00416275
0.00333954 0.00287115 -5.23424e-07
0.0027033 0.00154007 0.00999906
0.00282114 -2.28899e-06 0.00283169
0.0047972 0.00519661 0.00755266
0.00315759 0.00314738 0.00316695
0 0.00849157 0.00581511
0.00486378 0.00367256 0.00378487
0.00153622 0.00270878 8.03587e-09
0.00579552 0.00832031 0.00999583
0.00597653 0.00999408 0.0085022
0.00420832 0.00999655 0.00831601
0.00401489 0.0085006 0.00999776
0.00998714 0.0084789 0.00580704
0.00314412 0.00683439 0.00315044
0 0.00748929 0.00137438
0.00137133 0.00748899 3.14282e-08
0 0.00287343 0.00335182
0 0.00580816 0.00831736
0 0.00429792 0.00253898
0.00253078 0.0042966 -1.99718e-07
0.00143361 0.00581929 0.00999992
0.0051718 0.00647164 0.0063985
0.00360189 0.00651045 0.00823295
0.00693808 0.00261995 0.0099946
0.0080053 0.00194898 0.00802976
0.00694679 -8.61391e-06 0.00307873
0.00600286 0.00165818 0.00361046
0.00997393 0.00286043 0.00334493
0 0.00140616 0.00256446
0.00636602 0.00822187 0.00641786
0.00579661 0.00142901 -1.90463e-06
0.00601947 0.00354611 0.00160072
0.00315168 0.00999793 0.00582465
0.00854876 0.00998958 0.00582721
0.00255363 0.00140435 -2.38598e-07
0.00595358 -6.99738e-06 0.00149195
0.00627057 0.00828181 0.00361461
0.00853168 -1.10806e-05 0.00582757
0.00619104 0.00166651 0.00636233
0.00140287 0.00256412 0.00999996
0.00709925 0.0071742 -3.49836e-06
0.0051567 0.00768563 0.00216712
0.005929 0.00608801 0.00159942
0 0.00686719 0.00578184
0.00997039 0.00139269 0.00255787
0.00177207 0.00361012 0.00640773
0.00998261 0.00847403 0.00261666
0.00839618 0.00617949 0.00412761
0.00596893 0.00999367 0.00149126
0.00695034 -8.32191e-06 0.00692252
0.00997507 0.00142228 0.00581189
0.00837983 0.00356338 0.00605515
0.00150292 -5.22397e-07 0.00581514
0 0.0013659 0.00748679
0.00136479 -3.95297e-07 0.00752892
0.00998422 0.00685466 0.00577385
0.00580273 0.00848569 -2.40663e-06
0 0.0075208 0.00859127
0.00136458 0.00748656 0.00999983
0.00422445 0.00820258 0.00362738
0.00858396 0.00998956 0.00750537
0.0099899 0.00861764 0.00751758
0.00576223 0.00158102 0.00999597
0.00724842 0.00418036 0.00999418
0 0.0057735 0.00666667
0.00136857 0.00999967 0.00752889
0 0.00863025 0.00752641
0.00855902 -1.14084e-05 0.0025025
0.0099799 0.00694082 0.002622
0.00844085 0.00633212 0.002158
0.00849952 0.00581413 0.00999255
0.00747408 0.0013655 0.00999383
0.00856679 -1.10977e-05 0.00750559
0.00997734 0.00135277 0.00747823
0 0.00143551 0.00581971
0.00596117 -6.58998e-06 0.00850229
0.00419728 -4.27167e-06 0.00339894
0.00791427 0.00469862 0.00203025
0.0099752 0.00428518 0.00253228
0.00422448 0.00999645 0.0066652
0.00283053 0.00999838 0.00283161
0.00130761 -4.90074e-07 0.00241826
0 0.00727418 0.00419576
0.00998362 0.00576114 0.00665834
0.00696315 0.00999212 0.00307811
0.0075025 0.00862882 0.00999372
0 0.00574334 0.00336387
0 0.0043297 0.00416652
0.00686179 0.00577734 0.00999463
0.00997931 0.00300941 0.00690695
0.00421176 -4.06807e-06 0.00666546
0.00247694 0.00999854 0.008611
0.00745908 0.00135659 -3.4285e-06
0.00576896 0.00666165 0.00999582
0.00998946 0.0075084 0.00858212
0.00860115 0.00754368 0.00999235
0.00689163 0.00301438 -2.92814e-06
0.00335417 0.00574143 -5.36493e-07
0.00751059 0.00862152 -4.07182e-06
0.0075026 0.00999098 0.0013832
0.00576719 0.00686177 -2.3323e-06
0.00696031 0.00636358 0.00302999
0.00748598 -9.68906e-06 0.00138403
0.00288085 0.00499791 0.00999889
0.00432577 0.00583057 0.00999743
0.00432341 0.00416367 0.00999744
0.0075119 0.00999141 0.00861008
0.00246862 -1.60457e-06 0.00861119
0.00997875 0.00573081 0.00335688
0 0.00302218 0.00691532
0.00998324 0.00400521 0.00849311
0.00847621 0.00400733 -4.57564e-06
0.00997118 0.002696 0.00153538
0 0.00244495 0.00857025
0.00244441 0.00856907 0.00999904
0.00749523 -9.23036e-06 0.00861015
0.00847236 0.00261366 0.00999258
0.00883842 0.00418336 0.00999209
0.00566574 0.00999441 0.00583082
0.00517876 0.00757922 0.00503054
0.00563626 0.00999437 0.004213
0.00696663 0.00999234 0.00692228
0.00301996 0.00691397 0.00999864
0.00415294 0.00432668 -9.87444e-07
0.00282439 -2.31106e-06 0.00440433
0.00314156 -2.5475e-06 0.005825
0.00997315 0.00418248 0.00111881
0.0036313 0.008335 0.00158734
0.00997754 0.00431703 0.00415925
0.00664809 0.00576662 -2.88431e-06
0.00857617 0.00998922 0.00250174
0 0.00848692 0.00262374
0.0013501 0.00999974 0.00405988
0 0.00885053 0.00419359
0.00418533 0.00884692 -1.2517e-06
0.00419858 0.00999638 0.00168651
0.00498611 0.00478736 0.00237728
0.00719758 0.00451372 -3.29099e-06
0.00562135 -6.39731e-06 0.00421353
0.00565089 -6.32041e-06 0.00583115
0.00131136 0.00999976 0.0024181
0.00854152 0.0024341 -4.53168e-06
0.00998227 0.00450927 0.00721104
0.0071073 0.009992 0.00499623
0.00573392 0.0033587 0.00999601
0.00244747 -1.929e-06 0.00135634
0.00998068 0.00243213 0.00856123
0.00239057 0.00479032 0.00499967
0.00581469 0.0043245 -2.14195e-06
0.0082949 0.00579823 -4.62743e-06
0.00547607 0.00999478 0.00721765
0.00997994 0.00431756 0.00582538
0.00539538 0.00999464 0.00277362
0.00709086 -8.69655e-06 0.0049967
0.00283356 0.00999837 0.00440409
0 0.00452174 0.00721958
0.00451838 0.0072169 0.00999724
0.00546148 -5.91119e-06 0.00721773
0.00359564 0.00507181 0.00359596
0.00424801 0.00999645 0.00500702
0.004235 -4.18623e-06 0.00500752
0.00366472 0.00521479 0.00617381
0 0.005744 0.00499998
0 0.00433013 0.00583333
0.00498569 0.00573994 -1.60554e-06
0.00497504 0.00633521 0.00355229
0.00538079 -6.1137e-06 0.00277413
0.00998112 0.00573159 0.00499232
0.00368473 0.00640569 0.00484328
0.005737 0.00499519 0.00999593
0.0099764 0.00576164 0.00158047
0 0.00666667 0
0.00857122 0.00751043 -5.11471e-06
0.0033177 -3.29493e-06 -2.99539e-07
0 0.01 0.00666667
0.00500072 0.00999539 0.00999678
0 0.00288419 0.00499914
0.00997916 0.00747636 0.00136773
0.00997599 0.00665382 -6.68084e-06
0 0.005 0.01
0.00498089 0.00287955 -1.46106e-06
0 0.005 0
0.00996911 -1.37579e-05 0.00332659
0.00999116 0.00998691 0.00665815
0.00418552 0.00727106 -1.18646e-06
0.00997629 0.00287131 0.00499159
0.00497783 -5.76975e-06 -1.20502e-06
0 0 0.00666667
0.00379013 0.00361434 0.0052256
0.00498702 -5.47537e-06 0.00999655
0.00997384 -1.36048e-05 0.00665853
0 0 0.005
0.00876543 0.00998871 0.00121459
0.00998125 0.00876677 0.0012133
0.00997145 -1.36773e-05 0.00499258
0.00997316 0.00498702 -6.46669e-06
0.00121532 0.00121958 -1.27135e-09
0 0.00122008 0.00122008
0 0.00333333 0.01
0 0.00666667 0.01
0.0087618 0.00876883 -5.4387e-06
0.00998637 0.00998662 0.00332596
0.00421018 0.00999644 0.00339862
0.00999004 0.00665437 0.00999039
0 0.00333333 0
0 0.00122008 0.00877992
0.00121606 -4.67355e-07 0.00877972
0.00121684 0.00121971 0.01
0.00877596 0.00998924 0.0087723
0.00121918 0.00877963 0.00999985
0 0.00877992 0.00877992
0.009992 0.00876732 0.00877066
0.00665482 0.0099923 -3.45109e-06
0.00996823 0.00120646 0.00121392
0.00121952 0.00999962 0.00877987
0.00877559 0.00876957 0.00999209
0.00998716 0.00498768 0.00999041
0 0 0.00333333
0.00663891 -8.29119e-06 -2.51095e-06
0.00874824 -1.18138e-05 0.00121546
0.00120642 -5.69085e-07 0.00121181
0 0.00877992 0.00122008
0.00121777 0.0087795 5.08387e-08
0.00120994 0.00999967 0.00121143
0.00997892 0.00120688 0.00877075
0.00876252 0.00120893 0.0099921
0.00665063 -8.04374e-06 0.00999452
0.00874873 0.00120851 -4.67011e-06
0.00875876 -1.14406e-05 0.00877232
0.00997032 0.0033202 -6.27521e-06
0.00333424 0.00999754 0.00999849
0.00245585 0.00999872 0.00135602
0.00666661 0.00999294 0.00999481
0.00998429 0.00332076 0.00999043
0 0.01 0.005
0.00261832 0.00848541 -3.06581e-07
0.00998872 0.00998678 0.00499216
0 0.01 0.00333333
0 0.00166667 0
0.0099668 -1.38965e-05 0.00166048
0 0.00166667 0.01
0 0.00833333 0
0.009979 0.00832014 -6.78233e-06
0.00997623 -1.35814e-05 0.00832428
0.00998407 0.00998648 0.00165968
0.00999356 0.00998696 0.00832415
0.00166688 0.0099991 0.00999961
0 0.01 0.00833333
0.00831829 0.00998937 -5.13434e-06
0.00830118 -1.11995e-05 -4.12314e-06
0.00831461 -1.08417e-05 0.00999247
0.00833166 0.00999 0.00999266
0 0 0.00833333
0.00999299 0.00832086 0.00999036
0.00165877 -1.23641e-06 -7.43187e-09
0 0 0.00166667
0.00332832 0.00999748 -7.76567e-07
0.00998144 0.00165354 0.00999039
0.00996748 0.00165305 -6.1458e-06
0.00166132 -9.70155e-07 0.00999971
0.00166446 0.00999923 -1.37054e-07
0 0.01 0.00166667
0.00999595 0.0099871 0.00999037
0 0 0.01
0.00998192 0.00998629 -6.98255e-06
0.0099786 -1.36923e-05 0.00999025
0 0.01 0.01
0.00996465 -1.39377e-05 -5.99993e-06
0 0.01 0
0 0 0
0.00499155 0.00999505 -1.94039e-06
0.00332411 -3.06399e-06 0.00999822
0 0.00833333 0.01

CELLS 343 686
1 0
1 1
1 2
1 3
1 4
1 5
1 6
1 7
1 8
1 9
1 10
1 11
1 12
1 13
1 14
1 15
1 16
1 17
1 18
1 19
1 20
1 21
1 22
1 23
1 24
1 25
1 26
1 27
1 28
1 29
1 30
1 31
1 32
1 33
1 34
1 35
1 36
1 37
1 38
1 39
1 40
1 41
1 42
1 43
1 44
1 45
1 46
1 47
1 48
1 49
1 50
1 51
1 52
1 53
1 54
1 55
1 56
1 57
1 58
1 59
1 60
1 61
1 62
1 63
1 64
1 65
1 66
1 67
1 68
1 69
1 70
1 71
1 72
1 73
1 74
1 75
1 76
1 77
1 78
1 79
1 80
1 81
1 82
1 83
1 84
1 85
1 86
1 87
1 88
1 89
1 90
1 91
1 92
1 93
1 94
1 95
1 96
1 97
1 98
1 99
1 100
1 101
1 102
1 103
1 104
1 105
1 106
1 107
1 108
1 109
1 110
1 111
1 112
1 113
1 114
1 115
1 116
1 117
1 118
1 119
1 120
1 121
1 122
1 123
1 124
1 125
1 126
1 127
1 128
1 129
1 130
1 131
1 132
1 133
1 134
1 135
1 136
1 137
1 138
1 139
1 140
1 141
1 142
1 143
1 144
1 145
1 146
1 147
1 148
1 149
1 150
1 151
1 152
1 153
1 154
1 155
1 156
1 157
1 158
1 159
1 160
1 161
1 162
1 163
1 164
1 165
1 166
1 167
1 168
1 169
1 170
1 171
1 172
1 173
1 174
1 175
1 176
1 177
1 178
1 179
1 180
1 181
1 182
1 183
1 184
1 185
1 186
1 187
1 188
1 189
1 190
1 191
1 192
1 193
1 194
1 195
1 196
1 197
1 198
1 199
1 200
1 201
1 202
1 203
1 204
1 205
1 206
1 207
1 208
1 209
1 210
1 211
1 212
1 213
1 214
1 215
1 216
1 217
1 218
1 219
1 220
1 221
1 222
1 223
1 224
1 225
1 226
1 227
1 228
1 229
1 230
1 231
1 232
1 233
1 234
1 235
1 236
1 237
1 238
1 239
1 240
1 241
1 242
1 243
1 244
1 245
1 246
1 247
1 248
1 249
1 250
1 251
1 252
1 253
1 254
1 255
1 256
1 257
1 258
1 259
1 260
1 261
1 262
1 263
1 264
1 265
1 266
1 267
1 268
1 269
1 270
1 271
1 272
1 273
1 274
1 275
1 276
1 277
1 278
1 279
1 280
1 281
1 282
1 283
1 284
1 285
1 286
1 287
1 288
1 289
1 290
1 291
1 292
1 293
1 294
1 295
1 296
1 297
1 298
1 299
1 300
1 301
1 302
1 303
1 304
1 305
1 306
1 307
1 308
1 309
1 310
1 311
1 312
1 313
1 314
1 315
1 316
1 317
1 318
1 319
1 320
1 321
1 322
1 323
1 324
1 325
1 326
1 327
1 328
1 329
1 330
1 331
1 332
1 333
1 334
1 335
1 336
1 337
1 338
1 339
1 340
1 341
1 342

CELL_TYPES 343
1
1
1
1
1
1
1
1
1
1
1
1
1
1
1
1
1
1
1
1
1
1
1
1
1
1
1
1
1
1
1
1
1
1
1
1
1
1
1
1
1
1
1
1
1
1
1
1
1
1
1
1
1
1
1
1
1
1
1
1
1
1
1
1
1
1
1
1
1
1
1
1
1
1
1
1
1
1
1
1
1
1
1
1
1
1
1
1
1
1
1
1
1
1
1
1
1
1
1
1
1
1
1
1
1
1
1
1
1
1
1
1
1
1
1
1
1
1
1
1
1
1
1
1
1
1
1
1
1
1
1
1
1
1
1
1
1
1
1
1
1
1
1
1
1
1
1
1
1
1
1
1
1
1
1
1
1
1
1
1
1
1
1
1
1
1
1
1
1
1
1
1
1
1
1
1
1
1
1
1
1
1
1
1
1
1
1
1
1
1
1
1
1
1
1
1
1
1
1
1
1
1
1
1
1
1
1
1
1
1
1
1
1
1
1
1
1
1
1
1
1
1
1
1
1
1
1
1
1
1
1
1
1
1
1
1
1
1
1
1
1
1
1
1
1
1
1
1
1
1
1
1
1
1
1
1
1
1
1
1
1
1
1
1
1
1
1
1
1
1
1
1
1
1
1
1
1
1
1
1
1
1
1
1
1
1
1
1
1
1
1
1
1
1
1
1
1
1
1
1
1
1
1
1
1
1
1
1
1
1
1
1
1
1
1
1
1
1
1
1
1
1
1
1
1
1
1
1
1
1
1
1
1
1
1
1
1
1
1
1
1
1
1

POINT_DATA 343
FIELD FieldData 3

ExternalForceID_(#) 1 343 int
0
1
2
3
4
5
6
7
8
9
10
11
12
13
14
15
16
17
18
19
20
21
22
23
24
25
26
27
28
29
30
31
32
33
34
35
36
37
38
39
40
41
42
43
44
45
46
47
48
49
50
51
52
53
54
55
56
57
58
59
60
61
62
63
64
65
66
67
68
69
70
71
72
73
74
75
76
77
78
79
80
81
82
83
84
85
86
87
88
89
90
91
92
93
94
95
96
97
98
99
100
101
102
103
104
105
106
107
108
109
110
111
112
113
114
115
116
117
118
119
120
121
122
123
124
125
126
127
128
129
130
131
132
133
134
135
136
137
138
139
140
141
142
143
144
145
146
147
148
149
150
151
152
153
154
155
156
157
158
159
160
161
162
163
164
165
166
167
168
169
170
171
172
173
174
175
176
177
178
179
180
181
182
183
184
185
186
187
188
189
190
191
192
193
194
195
196
197
198
199
200
201
202
203
204
205
206
207
208
209
210
211
212
213
214
215
216
217
218
219
220
221
222
223
224
225
226
227
228
229
230
231
232
233
234
235
236
237
238
239
240
241
242
243
244
245
246
247
248
249
250
251
252
253
254
255
256
257
258
259
260
261
262
263
264
265
266
267
268
269
270
271
272
273
274
275
276
277
278
279
280
281
282
283
284
285
286
287
288
289
290
291
292
293
294
295
296
297
298
299
300
301
302
303
304
305
306
307
308
309
310
311
312
313
314
315
316
317
318
319
320
321
322
323
324
325
326
327
328
329
330
331
332
333
334
335
336
337
338
339
340
341
342

ExternalForceType_(0/1/2/3/4) 1 343 int
0
0
0
0
0
0
0
0
0
0
0
0
0
0
0
0
0
0
0
0
0
0
0
0
0
0
0
0
0
0
0
0
0
0
0
0
0
0
0
0
0
0
0
0
0
0
0
0
0
0
0
0
0
0
0
0
0
0
0
0
0
0
0
0
0
0
0
0
0
0
0
0
0
0
0
0
0
0
0
0
0
0
0
0
0
0
0
0
0
0
0
0
0
0
0
0
0
0
0
0
0
0
0
0
0
0
0
0
0
0
0
0
0
0
0
0
0
0
0
0
0
0
0
0
0
0
0
0
0
0
0
0
0
0
0
0
0
0
0
0
0
0
0
0
0
0
0
0
0
0
0
0
0
0
0
0
0
0
0
0
0
0
0
0
0
0
0
0
0
0
0
0
0
0
0
0
0
0
0
0
0
0
0
0
0
0
0
0
0
0
0
0
0
0
0
0
0
0
0
0
0
0
0
0
0
0
0
0
0
0
0
0
0
0
0
0
0
0
0
0
0
0
0
0
0
0
0
0
0
0
0
0
0
0
0
0
0
0
0
0
0
0
0
0
0
0
0
0
0
0
0
0
0
0
0
0
0
0
0
0
0
0
0
0
0
0
0
0
0
0
0
0
0
0
0
0
0
0
0
0
0
0
0
0
0
0
0
0
0
0
0
0
0
0
0
0
0
0
0
0
0
0
0
0
0
0
0
0
0
0
0
0
0
0
0
0
0
0
0
0
0
0
0
0
0
0
0
0
0
0
0
0
0
0
0
0
0
0
0
0
0
0
0

ExternalForce_(N) 3 343 double
0 -3.09568e-05 0
0 -0.000138619 0
0 -2.16714e-05 0
0 -0.000168226 0
0 -8.26002e-05 0
0 -8.9203e-05 0
0 -9.74165e-05 0
0 -7.37906e-05 0
0 -6.68156e-05 0
0 -5.47617e-05 0
0 -3.04981e-05 0
0 -0.000105531 0
0 -4.77758e-05 0
0 -0.000161821 0
0 -2.96713e-05 0
0 -7.9067e-05 0
0 -6.57564e-05 0
0 -0.000106704 0
0 -4.11017e-05 0
0 -8.006e-05 0
0 -6.02474e-05 0
0 -0.000115662 0
0 -2.18875e-05 0
0 -4.17098e-05 0
0 -0.000107827 0
0 -7.27379e-05 0
0 -4.13856e-05 0
0 -3.85027e-05 0
0 -3.029e-05 0
0 -0.000128774 0
0 -7.57947e-05 0
0 -0.000162261 0
0 -0.000116775 0
0 -7.15802e-05 0
0 -3.74431e-05 0
0 -0.000108892 0
0 -3.74072e-05 0
0 -0.000136493 0
0 -6.25303e-05 0
0 -7.85756e-05 0
0 -7.52544e-05 0
0 -0.000116589 0
0 -0.000160874 0
0 -2.73339e-05 0
0 -8.7662e-05 0
0 -2.53184e-05 0
0 -7.42972e-05 0
0 -4.15199e-05 0
0 -0.000128792 0
0 -3.72945e-05 0
0 -2.72189e-05 0
0 -7.03157e-05 0
0 -0.000119003 0
0 -5.02041e-05 0
0 -8.04153e-05 0
0 -4.4939e-05 0
0 -2.74192e-05 0
0 -3.19929e-05 0
0 -4.04607e-05 0
0 -2.07889e-05 0
0 -3.28809e-05 0
0 -3.54797e-05 0
0 -0.000153858 0
0 -7.19739e-05 0
0 -8.09026e-05 0
0 -4.90862e-05 0
0 -2.77255e-05 0
0 -7.06591e-05 0
0 -3.20606e-05 0
0 -4.10794e-05 0
0 -1.98932e-05 0
0 -2.37551e-05 0
0 -3.0591e-05 0
0 -5.86107e-05 0
0 -5.75946e-05 0
0 -4.01595e-05 0
0 -5.35099e-05 0
0 -2.24477e-05 0
0 -4.41213e-05 0
0 -4.29866e-05 0
0 -4.42325e-05 0
0 -4.30889e-05 0
0 -4.19155e-05 0
0 -5.21923e-05 0
0 -1.5029e-05 0
0 -2.34331e-05 0
0 -1.9903e-05 0
0 -4.30461e-05 0
0 -3.11931e-05 0
0 -3.08326e-05 0
0 -4.52797e-05 0
0 -5.7648e-05 0
0 -8.02544e-05 0
0 -2.43623e-05 0
0 -0.000150893 0
0 -3.43039e-05 0
0 -7.21258e-05 0
0 -1.97489e-05 0
0 -2.00202e-05 0
0 -7.83017e-05 0
0 -4.32908e-05 0
0 -7.00326e-05 0
0 -1.17841e-05 0
0 -4.93779e-05 0
0 -1.58193e-05 0
0 -4.04762e-05 0
0 -8.57147e-05 0
0 -4.2953e-05 0
0 -7.82027e-05 0
0 -2.09499e-05 0
0 -3.31713e-05 0
0 -9.30599e-05 0
0 -7.26197e-05 0
0 -1.76801e-05 0
0 -2.06228e-05 0
0 -7.8371e-05 0
0 -1.84411e-05 0
0 -7.30662e-05 0
0 -4.11806e-05 0
0 -2.3265e-05 0
0 -4.23503e-05 0
0 -5.94919e-05 0
0 -4.22718e-05 0
0 -2.12723e-05 0
0 -1.86252e-05 0
0 -1.77849e-05 0
0 -3.82356e-05 0
0 -2.39658e-05 0
0 -1.62481e-05 0
0 -7.86148e-05 0
0 -1.61387e-05 0
0 -2.34763e-05 0
0 -2.95637e-05 0
0 -2.93742e-05 0
0 -1.33947e-05 0
0 -1.83735e-05 0
0 -2.05639e-05 0
0 -1.91062e-05 0
0 -1.84053e-05 0
0 -6.25793e-05 0
0 -4.49914e-05 0
0 -1.98914e-05 0
0 -1.58922e-05 0
0 -2.367e-05 0
0 -3.81266e-05 0
0 -4.36518e-05 0
0 -2.25472e-05 0
0 -0.000115119 0
0 -3.05886e-05 0
0 -1.32828e-05 0
0 -3.38507e-05 0
0 -1.78391e-05 0
0 -2.88237e-05 0
0 -1.34771e-05 0
0 -2.36876e-05 0
0 -2.06453e-05 0
0 -2.58912e-05 0
0 -2.10097e-05 0
0 -1.7602e-05 0
0 -3.13896e-05 0
0 -1.34386e-05 0
0 -2.38863e-05 0
0 -2.04203e-05 0
0 -1.33426e-05 0
0 -2.13076e-05 0
0 -1.86316e-05 0
0 -3.10974e-05 0
0 -2.56228e-05 0
0 -2.33161e-05 0
0 -1.57181e-05 0
0 -1.87061e-05 0
0 -5.38771e-05 0
0 -1.84308e-05 0
0 -3.08341e-05 0
0 -2.91652e-05 0
0 -1.16203e-05 0
0 -1.85667e-05 0
0 -2.00287e-05 0
0 -2.68375e-05 0
0 -2.37799e-05 0
0 -3.16945e-05 0
0 -3.13676e-05 0
0 -3.15313e-05 0
0 -1.90796e-05 0
0 -1.58134e-05 0
0 -1.83326e-05 0
0 -3.16308e-05 0
0 -2.07128e-05 0
0 -2.91276e-05 0
0 -6.03597e-05 0
0 -2.26581e-05 0
0 -2.35174e-05 0
0 -2.33506e-05 0
0 -2.59482e-05 0
0 -1.63393e-05 0
0 -1.78912e-05 0
0 -2.02658e-05 0
0 -5.62379e-05 0
0 -2.04507e-05 0
0 -2.14176e-05 0
0 -2.38895e-05 0
0 -3.05955e-05 0
0 -3.11287e-05 0
0 -2.01544e-05 0
0 -1.92198e-05 0
0 -2.99909e-05 0
0 -6.32085e-05 0
0 -2.04829e-05 0
0 -2.67435e-05 0
0 -2.11611e-05 0
0 -1.83262e-05 0
0 -1.96474e-05 0
0 -2.0699e-05 0
0 -2.83503e-05 0
0 -2.27807e-05 0
0 -2.35234e-05 0
0 -1.93874e-05 0
0 -6.29086e-05 0
0 -2.12117e-05 0
0 -3.22943e-05 0
0 -2.06229e-05 0
0 -2.61501e-05 0
0 -1.90721e-05 0
0 -2.86319e-05 0
0 -2.53212e-05 0
0 -2.07681e-05 0
0 -2.05553e-05 0
0 -1.88077e-05 0
0 -6.92631e-05 0
0 -2.20924e-05 0
0 -2.02457e-05 0
0 -6.16224e-05 0
0 -2.08117e-05 0
0 -2.85397e-05 0
0 -2.08875e-05 0
0 -6.32617e-05 0
0 -1.39008e-05 0
0 -2.0289e-05 0
0 -6.45558e-05 0
0 -2.47785e-05 0
0 -2.35177e-05 0
0 -7.28089e-06 0
0 -2.18143e-05 0
0 -6.93323e-06 0
0 -6.87344e-06 0
0 -8.76768e-06 0
0 -2.48719e-05 0
0 -2.22231e-05 0
0 -1.31068e-05 0
0 -7.69816e-06 0
0 -2.27889e-05 0
0 -5.95166e-06 0
0 -6.55579e-06 0
0 -6.71305e-06 0
0 -2.46468e-05 0
0 -2.27228e-05 0
0 -7.6878e-06 0
0 -6.67903e-06 0
0 -6.10861e-05 0
0 -6.6189e-06 0
0 -6.52665e-06 0
0 -6.87836e-06 0
0 -1.78856e-05 0
0 -1.87072e-05 0
0 -6.73674e-06 0
0 -6.91401e-06 0
0 -1.82903e-05 0
0 -2.2423e-05 0
0 -6.67521e-06 0
0 -7.02401e-06 0
0 -1.78908e-05 0
0 -5.89658e-06 0
0 -1.98938e-05 0
0 -7.3162e-06 0
0 -5.63509e-06 0
0 -1.76631e-05 0
0 -1.42638e-05 0
0 -2.22707e-05 0
0 -1.77204e-05 0
0 -2.11264e-05 0
0 -1.75686e-05 0
0 -1.76047e-05 0
0 -6.69346e-06 0
0 -2.20467e-05 0
0 -1.42479e-05 0
0 -1.76144e-05 0
0 -6.84615e-06 0
0 -6.12404e-06 0
0 -6.50125e-06 0
0 -1.41879e-05 0
0 -1.37476e-05 0
0 -2.11168e-05 0
0 -1.79377e-05 0
0 -1.37282e-05 0
0 -1.41198e-05 0
0 -2.15061e-05 0
0 -6.84475e-06 0
0 -1.74349e-05 0
0 -1.75758e-05 0
0 -6.41828e-06 0
0 -7.20025e-06 0
0 -2.30432e-05 0
0 -6.96894e-06 0
0 -6.44499e-06 0
0 -6.14414e-06 0
0 -2.14766e-05 0
0 -6.00855e-06 0
0 -5.92427e-06 0
0 -5.81567e-06 0
0 -5.02303e-06 0
0 -5.01945e-06 0
0 -4.85271e-06 0
0 -4.87573e-06 0
0 -4.8684e-06 0
0 -5.22951e-06 0
0 -4.84801e-06 0
0 -4.88396e-06 0
0 -4.77612e-06 0
0 -4.81304e-06 0
0 -4.85251e-06 0
0 -4.8555e-06 0
0 -4.82575e-06 0
0 -4.80313e-06 0
0 -4.86923e-06 0
0 -4.85781e-06 0
0 -4.73027e-06 0
0 -1.08748e-05 0
0 -5.22863e-06 0
0 -5.34413e-06 0
0 -5.26459e-06 0
0 -5.05624e-06 0
0 -4.92238e-06 0
0 -5.43253e-06 0
0 -5.43253e-06 0
0 -5.43253e-06 0
0 -5.43253e-06 0
0 -5.43253e-06 0
0 -5.43253e-06 0
0 -5.40321e-06 0
0 -5.40321e-06 0
0 -7.3113e-06 0
0 -6.98147e-06 0
0 -4.8949e-06 0

