# vtk DataFile Version 4.2
vtk output
ASCII
DATASET UNSTRUCTURED_GRID

POINTS 343 double
0.00114618 0.00419583 -6.88498e-07
0.00221658 0.00498443 0.00217365
0 0.00419538 0.00112517
0.00197121 0.00195608 0.00194067
0.00528634 0.00241305 0.00502713
0.0052889 0.0038358 0.00639092
0.00780154 0.00478431 0.0049902
0.00636619 0.00485737 0.00368684
0.00699653 0.00329693 0.00690358
0.00510171 0.00499778 0.00499499
0.00427901 0.00112269 0.00999225
0.00540316 0.00208653 0.00789592
0.00428808 -2.62733e-06 0.00831107
0.00205626 0.00200421 0.00803157
0.00438636 0.00253764 0.0099921
0.00711829 0.00645385 0.00693612
0.00656007 0.00618902 0.00517596
0.00230943 0.00218671 0.0051442
0 0.00143586 0.00417514
0.00162838 0.00346748 0.0040358
0.00699599 0.00320248 0.00315663
0.00792944 0.00222328 0.00505489
0 0.00270918 0.00154168
0.00425317 0.00143331 -1.33759e-06
0.00512127 0.00219375 0.00219513
0.00405022 0.00353088 0.00160099
0.00137453 3.9826e-07 0.00405889
0.00427894 -2.84507e-06 0.0016859
0.00268268 0.00695408 -1.01348e-06
0.00197815 0.00805439 0.00194345
0.00417681 0.00625205 0.00164295
0.00819355 0.0079928 0.00798258
0.00815556 0.00482462 0.00800756
0.00858909 0.0060883 0.00593629
0.0102471 0.0088331 0.00418086
0.0077537 0.00764242 0.00495512
0.00877175 0.00998428 0.00415769
0.00816397 0.00797787 0.00201142
0.00361434 0.00304013 0.0069558
0.00453845 0.00366668 0.00831742
0.00397917 0.0016048 0.00596508
0.00511778 0.00767291 0.00766946
0.00203126 0.00800973 0.00798799
0.00288768 0.00999903 0.00712462
0.00400093 0.00840285 0.00595395
0 0.00695361 0.00262895
0.00168087 0.00624068 0.00408665
0 0.0040177 0.00850214
0.00236451 0.0049877 0.00765948
0.00146439 0.00417564 0.00999876
0.00734662 0.00712459 0.00998307
0.0062601 0.00597693 0.00840666
0.00209438 0.00794328 0.00474024
0.0031086 0.0069458 0.00646513
0.00162034 0.00607969 0.00592472
0.01024 0.00579434 0.00829523
0 0.00718191 0.00711644
0.00161782 0.00577485 -9.4433e-07
0 0.00577432 0.00158701
0.0102436 0.0071665 0.00709674
0.0029333 0.00335209 0.00999569
0.0102205 0.00142302 0.00416299
0.00822781 0.00195376 0.0019745
0.00859032 0.00351242 0.00399
0.0038082 0.00165211 0.00412509
0.00154022 0.0100006 0.00581386
0.00287296 -7.64597e-07 0.00712506
0.00625237 0.0041783 0.00836528
0.0102406 0.00725785 0.00418306
0.00873658 -9.3146e-06 0.00415853
0.00341618 0.00287306 -1.18432e-06
0.00276307 0.00154144 0.00999591
0.00288122 -9.62131e-07 0.00282977
0.00490599 0.00519904 0.00754729
0.00322658 0.00314935 0.00316469
0 0.00849157 0.00581511
0.00497318 0.00367487 0.00378223
0.00156988 0.00270985 -9.53632e-07
0.00593567 0.00832091 0.00998697
0.00612343 0.00999295 0.00849417
0.00430812 0.00999689 0.00831118
0.00410924 0.00850188 0.00999231
0.0102471 0.00847482 0.00579842
0.00321412 0.00683654 0.00314828
0 0.00748929 0.00137438
0.00140177 0.00749011 -8.87238e-07
0 0.00287343 0.00335182
0 0.00580816 0.00831736
0 0.00429792 0.00253898
0.00258856 0.00429823 -9.94081e-07
0.00146477 0.00582037 0.00999876
0.00529097 0.0064737 0.00639359
0.00368307 0.00651277 0.00822899
0.00710034 0.00262178 0.0099843
0.00819342 0.00195048 0.00801919
0.00710655 -6.97924e-06 0.00307688
0.00613926 0.00166007 0.00360808
0.0102246 0.00286059 0.00334165
0 0.00140616 0.00256446
0.00651904 0.00822225 0.00641141
0.00593175 0.00143066 -1.38498e-06
0.00616018 0.00354813 0.00160035
0.00322429 0.00999862 0.00582209
0.00876767 0.0099845 0.00581975
0.00261106 0.00140564 -9.68027e-07
0.00608968 -5.12899e-06 0.00149165
0.00642257 0.00828213 0.00361179
0.00873271 -9.21501e-06 0.00582004
0.00633098 0.00166836 0.00635613
0.00143311 0.0025651 0.00999882
0.00727639 0.00717437 -2.37385e-06
0.00527918 0.00768704 0.00216591
0.00607053 0.00608993 0.00159902
0 0.00686719 0.00578184
0.0102195 0.00139321 0.00255587
0.00181017 0.00361136 0.0064064
0.0102449 0.00846975 0.00261443
0.00860334 0.00617938 0.00412336
0.00611824 0.00999215 0.00149087
0.00710868 -6.52748e-06 0.00691458
0.0102221 0.00142267 0.00580307
0.00858147 0.0035645 0.00604743
0.00153471 3.74646e-07 0.00581398
0 0.0013659 0.00748679
0.00139362 4.49694e-07 0.00752795
0.0102404 0.0068517 0.0057655
0.00594666 0.00848602 -1.55126e-06
0 0.0075208 0.00859127
0.00139425 0.00748772 0.00999867
0.00432191 0.00820399 0.00362484
0.00880372 0.00998448 0.0074949
0.0102501 0.00861336 0.0075056
0.00589332 0.00158266 0.00998754
0.00742055 0.00418206 0.00998322
0 0.0057735 0.00666667
0.00139857 0.0100005 0.00752794
0 0.00863025 0.00752641
0.00876303 -9.73754e-06 0.00250119
0.0102384 0.00693741 0.0026197
0.00865121 0.0063315 0.00215711
0.00870815 0.00581404 0.00997919
0.00764909 0.00136667 0.00998238
0.00876872 -9.43464e-06 0.00749501
0.0102242 0.00135321 0.00746631
0 0.00143551 0.00581971
0.00609476 -4.80195e-06 0.00849425
0.00428852 -2.73427e-06 0.00339682
0.0081065 0.00469935 0.00202965
0.0102289 0.00428477 0.00253061
0.0043243 0.00999646 0.00666108
0.00289601 0.00999907 0.00282968
0.0013352 3.5882e-07 0.00241726
0 0.00727418 0.00419576
0.0102376 0.0057599 0.00664799
0.0071388 0.00998933 0.0030759
0.00768907 0.00862762 0.00998208
0 0.00574334 0.00336387
0 0.0043297 0.00416652
0.00702622 0.00577885 0.00998415
0.0102286 0.0030098 0.00689595
0.00430274 -2.62192e-06 0.00666131
0.00253387 0.00999911 0.00860851
0.00763753 0.00135796 -2.20065e-06
0.00590588 0.00666333 0.00998721
0.0102471 0.00750537 0.00856847
0.00881619 0.00754225 0.0099787
0.00705646 0.00301624 -1.94569e-06
0.00343223 0.00574367 -1.10161e-06
0.0077019 0.00862002 -2.80633e-06
0.00769523 0.00998718 0.00138301
0.00590763 0.0068633 -1.5921e-06
0.00712866 0.00636449 0.00302795
0.00766169 -8.20792e-06 0.00138421
0.00294582 0.00499993 0.0099955
0.00442519 0.00583314 0.00999147
0.0044218 0.00416621 0.00999167
0.00770095 0.00998815 0.00859955
0.00252118 -4.20589e-07 0.00860887
0.010234 0.00572973 0.00335348
0 0.00302218 0.00691532
0.0102339 0.00400531 0.00847974
0.00868667 0.00400806 -2.56544e-06
0.0102233 0.00269607 0.00153544
0 0.00244495 0.00857025
0.00250029 0.00857032 0.0099961
0.00766829 -7.79794e-06 0.00859948
0.00867545 0.00261495 0.00997928
0.0090545 0.00418406 0.00997814
0.00580279 0.00999334 0.00582543
0.00529951 0.00758076 0.00502661
0.00577323 0.00999321 0.00420963
0.00714022 0.00998982 0.00691426
0.00308872 0.00691617 0.00999487
0.0042498 0.00432898 -1.10342e-06
0.00288423 -1.21851e-06 0.00440226
0.00320811 -1.30318e-06 0.00582253
0.0102283 0.004182 0.00111957
0.00371612 0.00833638 0.00158623
0.0102298 0.00431652 0.0041539
0.00681028 0.00576808 -1.76732e-06
0.00879847 0.00998384 0.00249986
0 0.00848692 0.00262374
0.00137977 0.0100006 0.00405882
0 0.00885053 0.00419359
0.00428693 0.00884776 -1.29262e-06
0.0042998 0.0099963 0.00168533
0.00510066 0.00478976 0.00237593
0.00737262 0.00451503 -2.03561e-06
0.00574649 -4.76908e-06 0.00421064
0.00577605 -4.68947e-06 0.00582597
0.0013404 0.0100006 0.00241704
0.00875133 0.00243511 -2.48291e-06
0.010234 0.00450884 0.00719948
0.00728578 0.00998903 0.00499105
0.00586595 0.00336089 0.00998782
0.00250015 -5.61897e-07 0.00135512
0.010229 0.00243251 0.00854777
0.00244265 0.00479193 0.00499793
0.00595318 0.00432666 -1.4226e-06
0.00850307 0.00579788 -2.8676e-06
0.00560854 0.00999408 0.00721177
0.0102315 0.00431713 0.00581678
0.00552721 0.00999372 0.00277163
0.00725333 -6.85554e-06 0.00499191
0.00289863 0.00999913 0.00440204
0 0.00452174 0.00721958
0.00462406 0.00721878 0.00999086
0.00558226 -4.24932e-06 0.00721153
0.00367519 0.005074 0.00359356
0.00434823 0.00999628 0.00500379
0.00432619 -2.61432e-06 0.00500441
0.00374567 0.00521707 0.00617092
0 0.005744 0.00499998
0 0.00433013 0.00583333
0.00510452 0.00574235 -1.18682e-06
0.00508979 0.00633744 0.00354984
0.0055013 -4.47908e-06 0.00277248
0.0102353 0.00573079 0.0049853
0.00376672 0.00640799 0.00484063
0.00587094 0.0049976 0.00998764
0.0102336 0.00576026 0.00158061
0 0.00666667 0
0.00879116 0.0075088 -3.27911e-06
0.00339209 -2.19815e-06 -6.3361e-07
0 0.01 0.00666667
0.00512257 0.00999454 0.00998996
0 0.00288419 0.00499914
0.0102403 0.00747254 0.00136831
0.0102372 0.00665137 -4.5117e-06
0 0.005 0.01
0.00509694 0.00288166 -1.32435e-06
0 0.005 0
0.0102161 -1.18446e-05 0.0033233
0.0102559 0.00997878 0.00664751
0.00428538 0.00727297 -1.18823e-06
0.0102257 0.00287189 0.00498466
0.005092 -4.29563e-06 -1.00167e-06
0 0 0.00666667
0.00387306 0.00361659 0.00522274
0.00509865 -4.17563e-06 0.00998949
0.0102194 -1.17101e-05 0.00664789
0 0 0.005
0.00899527 0.00998283 0.00121493
0.0102458 0.00876167 0.00121393
0.0102175 -1.17303e-05 0.00498551
0.0102315 0.00498596 -4.00872e-06
0.00124163 0.00122028 -7.90814e-07
0 0.00122008 0.00122008
0 0.00333333 0.01
0 0.00666667 0.01
0.00899058 0.00876526 -3.61307e-06
0.0102526 0.00997832 0.00332203
0.00431006 0.0099963 0.00339623
0.0102466 0.00665218 0.00997443
0 0.00333333 0
0 0.00122008 0.00877992
0.0012418 2.18181e-07 0.00877866
0.00124292 0.0012205 0.00999903
0.00900171 0.00998385 0.00875979
0.00124575 0.0087805 0.00999879
0 0.00877992 0.00877992
0.0102525 0.00876264 0.00875673
0.00682502 0.00998948 -2.91489e-06
0.0102183 0.00120705 0.00121454
0.00124646 0.0100002 0.00877895
0.00899859 0.0087663 0.00997819
0.0102404 0.00498684 0.00997448
0 0 0.00333333
0.00679443 -6.57016e-06 -1.62367e-06
0.00895949 -1.02735e-05 0.00121624
0.00123208 1.72664e-07 0.00121114
0 0.00877992 0.00122008
0.00124493 0.00878039 -7.33981e-07
0.00123707 0.0100003 0.00121056
0.0102254 0.00120736 0.00875673
0.00897215 0.0012098 0.00997817
0.00680277 -6.49075e-06 0.00998434
0.0089629 0.00120965 -2.51005e-06
0.0089666 -1.00024e-05 0.0087595
0.0102257 0.00332008 -3.76047e-06
0.00341308 0.00999758 0.00999462
0.00251309 0.00999937 0.00135476
0.00683309 0.00999041 0.00998511
0.0102346 0.00332132 0.00997464
0 0.01 0.005
0.00267979 0.00848679 -1.04958e-06
0.010254 0.00997844 0.00498534
0 0.01 0.00333333
0 0.00166667 0
0.0102153 -1.22476e-05 0.00166036
0 0.00166667 0.01
0 0.00833333 0
0.0102444 0.00831541 -4.29843e-06
0.0102216 -1.20172e-05 0.00831078
0.0102518 0.00997827 0.00165934
0.0102579 0.00997908 0.00831086
0.00170483 0.00999933 0.0099981
0 0.01 0.00833333
0.00853664 0.00998383 -4.00226e-06
0.0085014 -9.67588e-06 -2.33493e-06
0.00851056 -9.65891e-06 0.00997929
0.00854473 0.00998502 0.00997989
0 0 0.00833333
0.0102531 0.00831685 0.00997439
0.0016946 -3.52535e-07 -7.60822e-07
0 0 0.00166667
0.00340924 0.00999782 -1.34577e-06
0.0102292 0.00165363 0.00997451
0.01022 0.00165331 -3.64976e-06
0.00169673 -1.43905e-07 0.00999813
0.00170313 0.00999982 -9.65186e-07
0 0.01 0.00166667
0.0102599 0.00997933 0.00997474
0 0 0.01
0.0102515 0.00997823 -4.90181e-06
0.0102237 -1.24173e-05 0.00997419
0 0.01 0.01
0.0102146 -1.23074e-05 -3.57006e-06
0 0.01 0
0 0 0
0.0051162 0.00999404 -1.8676e-06
0.003397 -2.08928e-06 0.00999389
0 0.00833333 0.01

CELLS 343 686
1 0
1 1
1 2
1 3
1 4
1 5
1 6
1 7
1 8
1 9
1 10
1 11
1 12
1 13
1 14
1 15
1 16
1 17
1 18
1 19
1 20
1 21
1 22
1 23
1 24
1 25
1 26
1 27
1 28
1 29
1 30
1 31
1 32
1 33
1 34
1 35
1 36
1 37
1 38
1 39
1 40
1 41
1 42
1 43
1 44
1 45
1 46
1 47
1 48
1 49
1 50
1 51
1 52
1 53
1 54
1 55
1 56
1 57
1 58
1 59
1 60
1 61
1 62
1 63
1 64
1 65
1 66
1 67
1 68
1 69
1 70
1 71
1 72
1 73
1 74
1 75
1 76
1 77
1 78
1 79
1 80
1 81
1 82
1 83
1 84
1 85
1 86
1 87
1 88
1 89
1 90
1 91
1 92
1 93
1 94
1 95
1 96
1 97
1 98
1 99
1 100
1 101
1 102
1 103
1 104
1 105
1 106
1 107
1 108
1 109
1 110
1 111
1 112
1 113
1 114
1 115
1 116
1 117
1 118
1 119
1 120
1 121
1 122
1 123
1 124
1 125
1 126
1 127
1 128
1 129
1 130
1 131
1 132
1 133
1 134
1 135
1 136
1 137
1 138
1 139
1 140
1 141
1 142
1 143
1 144
1 145
1 146
1 147
1 148
1 149
1 150
1 151
1 152
1 153
1 154
1 155
1 156
1 157
1 158
1 159
1 160
1 161
1 162
1 163
1 164
1 165
1 166
1 167
1 168
1 169
1 170
1 171
1 172
1 173
1 174
1 175
1 176
1 177
1 178
1 179
1 180
1 181
1 182
1 183
1 184
1 185
1 186
1 187
1 188
1 189
1 190
1 191
1 192
1 193
1 194
1 195
1 196
1 197
1 198
1 199
1 200
1 201
1 202
1 203
1 204
1 205
1 206
1 207
1 208
1 209
1 210
1 211
1 212
1 213
1 214
1 215
1 216
1 217
1 218
1 219
1 220
1 221
1 222
1 223
1 224
1 225
1 226
1 227
1 228
1 229
1 230
1 231
1 232
1 233
1 234
1 235
1 236
1 237
1 238
1 239
1 240
1 241
1 242
1 243
1 244
1 245
1 246
1 247
1 248
1 249
1 250
1 251
1 252
1 253
1 254
1 255
1 256
1 257
1 258
1 259
1 260
1 261
1 262
1 263
1 264
1 265
1 266
1 267
1 268
1 269
1 270
1 271
1 272
1 273
1 274
1 275
1 276
1 277
1 278
1 279
1 280
1 281
1 282
1 283
1 284
1 285
1 286
1 287
1 288
1 289
1 290
1 291
1 292
1 293
1 294
1 295
1 296
1 297
1 298
1 299
1 300
1 301
1 302
1 303
1 304
1 305
1 306
1 307
1 308
1 309
1 310
1 311
1 312
1 313
1 314
1 315
1 316
1 317
1 318
1 319
1 320
1 321
1 322
1 323
1 324
1 325
1 326
1 327
1 328
1 329
1 330
1 331
1 332
1 333
1 334
1 335
1 336
1 337
1 338
1 339
1 340
1 341
1 342

CELL_TYPES 343
1
1
1
1
1
1
1
1
1
1
1
1
1
1
1
1
1
1
1
1
1
1
1
1
1
1
1
1
1
1
1
1
1
1
1
1
1
1
1
1
1
1
1
1
1
1
1
1
1
1
1
1
1
1
1
1
1
1
1
1
1
1
1
1
1
1
1
1
1
1
1
1
1
1
1
1
1
1
1
1
1
1
1
1
1
1
1
1
1
1
1
1
1
1
1
1
1
1
1
1
1
1
1
1
1
1
1
1
1
1
1
1
1
1
1
1
1
1
1
1
1
1
1
1
1
1
1
1
1
1
1
1
1
1
1
1
1
1
1
1
1
1
1
1
1
1
1
1
1
1
1
1
1
1
1
1
1
1
1
1
1
1
1
1
1
1
1
1
1
1
1
1
1
1
1
1
1
1
1
1
1
1
1
1
1
1
1
1
1
1
1
1
1
1
1
1
1
1
1
1
1
1
1
1
1
1
1
1
1
1
1
1
1
1
1
1
1
1
1
1
1
1
1
1
1
1
1
1
1
1
1
1
1
1
1
1
1
1
1
1
1
1
1
1
1
1
1
1
1
1
1
1
1
1
1
1
1
1
1
1
1
1
1
1
1
1
1
1
1
1
1
1
1
1
1
1
1
1
1
1
1
1
1
1
1
1
1
1
1
1
1
1
1
1
1
1
1
1
1
1
1
1
1
1
1
1
1
1
1
1
1
1
1
1
1
1
1
1
1
1
1
1
1
1
1
1
1
1
1
1
1
1
1
1
1
1
1
1
1
1
1
1
1

POINT_DATA 343
FIELD FieldData 3

ExternalForceID_(#) 1 343 int
0
1
2
3
4
5
6
7
8
9
10
11
12
13
14
15
16
17
18
19
20
21
22
23
24
25
26
27
28
29
30
31
32
33
34
35
36
37
38
39
40
41
42
43
44
45
46
47
48
49
50
51
52
53
54
55
56
57
58
59
60
61
62
63
64
65
66
67
68
69
70
71
72
73
74
75
76
77
78
79
80
81
82
83
84
85
86
87
88
89
90
91
92
93
94
95
96
97
98
99
100
101
102
103
104
105
106
107
108
109
110
111
112
113
114
115
116
117
118
119
120
121
122
123
124
125
126
127
128
129
130
131
132
133
134
135
136
137
138
139
140
141
142
143
144
145
146
147
148
149
150
151
152
153
154
155
156
157
158
159
160
161
162
163
164
165
166
167
168
169
170
171
172
173
174
175
176
177
178
179
180
181
182
183
184
185
186
187
188
189
190
191
192
193
194
195
196
197
198
199
200
201
202
203
204
205
206
207
208
209
210
211
212
213
214
215
216
217
218
219
220
221
222
223
224
225
226
227
228
229
230
231
232
233
234
235
236
237
238
239
240
241
242
243
244
245
246
247
248
249
250
251
252
253
254
255
256
257
258
259
260
261
262
263
264
265
266
267
268
269
270
271
272
273
274
275
276
277
278
279
280
281
282
283
284
285
286
287
288
289
290
291
292
293
294
295
296
297
298
299
300
301
302
303
304
305
306
307
308
309
310
311
312
313
314
315
316
317
318
319
320
321
322
323
324
325
326
327
328
329
330
331
332
333
334
335
336
337
338
339
340
341
342

ExternalForceType_(0/1/2/3/4) 1 343 int
0
0
0
0
0
0
0
0
0
0
0
0
0
0
0
0
0
0
0
0
0
0
0
0
0
0
0
0
0
0
0
0
0
0
0
0
0
0
0
0
0
0
0
0
0
0
0
0
0
0
0
0
0
0
0
0
0
0
0
0
0
0
0
0
0
0
0
0
0
0
0
0
0
0
0
0
0
0
0
0
0
0
0
0
0
0
0
0
0
0
0
0
0
0
0
0
0
0
0
0
0
0
0
0
0
0
0
0
0
0
0
0
0
0
0
0
0
0
0
0
0
0
0
0
0
0
0
0
0
0
0
0
0
0
0
0
0
0
0
0
0
0
0
0
0
0
0
0
0
0
0
0
0
0
0
0
0
0
0
0
0
0
0
0
0
0
0
0
0
0
0
0
0
0
0
0
0
0
0
0
0
0
0
0
0
0
0
0
0
0
0
0
0
0
0
0
0
0
0
0
0
0
0
0
0
0
0
0
0
0
0
0
0
0
0
0
0
0
0
0
0
0
0
0
0
0
0
0
0
0
0
0
0
0
0
0
0
0
0
0
0
0
0
0
0
0
0
0
0
0
0
0
0
0
0
0
0
0
0
0
0
0
0
0
0
0
0
0
0
0
0
0
0
0
0
0
0
0
0
0
0
0
0
0
0
0
0
0
0
0
0
0
0
0
0
0
0
0
0
0
0
0
0
0
0
0
0
0
0
0
0
0
0
0
0
0
0
0
0
0
0
0
0
0
0
0
0
0
0
0
0
0
0
0
0
0
0
0
0
0
0
0
0

ExternalForce_(N) 3 343 double
0 -3.09568e-05 0
0 -0.000138619 0
0 -2.16714e-05 0
0 -0.000168226 0
0 -8.26002e-05 0
0 -8.9203e-05 0
0 -9.74165e-05 0
0 -7.37906e-05 0
0 -6.68156e-05 0
0 -5.47617e-05 0
0 -3.04981e-05 0
0 -0.000105531 0
0 -4.77758e-05 0
0 -0.000161821 0
0 -2.96713e-05 0
0 -7.9067e-05 0
0 -6.57564e-05 0
0 -0.000106704 0
0 -4.11017e-05 0
0 -8.006e-05 0
0 -6.02474e-05 0
0 -0.000115662 0
0 -2.18875e-05 0
0 -4.17098e-05 0
0 -0.000107827 0
0 -7.27379e-05 0
0 -4.13856e-05 0
0 -3.85027e-05 0
0 -3.029e-05 0
0 -0.000128774 0
0 -7.57947e-05 0
0 -0.000162261 0
0 -0.000116775 0
0 -7.15802e-05 0
0 -3.74431e-05 0
0 -0.000108892 0
0 -3.74072e-05 0
0 -0.000136493 0
0 -6.25303e-05 0
0 -7.85756e-05 0
0 -7.52544e-05 0
0 -0.000116589 0
0 -0.000160874 0
0 -2.73339e-05 0
0 -8.7662e-05 0
0 -2.53184e-05 0
0 -7.42972e-05 0
0 -4.15199e-05 0
0 -0.000128792 0
0 -3.72945e-05 0
0 -2.72189e-05 0
0 -7.03157e-05 0
0 -0.000119003 0
0 -5.02041e-05 0
0 -8.04153e-05 0
0 -4.4939e-05 0
0 -2.74192e-05 0
0 -3.19929e-05 0
0 -4.04607e-05 0
0 -2.07889e-05 0
0 -3.28809e-05 0
0 -3.54797e-05 0
0 -0.000153858 0
0 -7.19739e-05 0
0 -8.09026e-05 0
0 -4.90862e-05 0
0 -2.77255e-05 0
0 -7.06591e-05 0
0 -3.20606e-05 0
0 -4.10794e-05 0
0 -1.98932e-05 0
0 -2.37551e-05 0
0 -3.0591e-05 0
0 -5.86107e-05 0
0 -5.75946e-05 0
0 -4.01595e-05 0
0 -5.35099e-05 0
0 -2.24477e-05 0
0 -4.41213e-05 0
0 -4.29866e-05 0
0 -4.42325e-05 0
0 -4.30889e-05 0
0 -4.19155e-05 0
0 -5.21923e-05 0
0 -1.5029e-05 0
0 -2.34331e-05 0
0 -1.9903e-05 0
0 -4.30461e-05 0
0 -3.11931e-05 0
0 -3.08326e-05 0
0 -4.52797e-05 0
0 -5.7648e-05 0
0 -8.02544e-05 0
0 -2.43623e-05 0
0 -0.000150893 0
0 -3.43039e-05 0
0 -7.21258e-05 0
0 -1.97489e-05 0
0 -2.00202e-05 0
0 -7.83017e-05 0
0 -4.32908e-05 0
0 -7.00326e-05 0
0 -1.17841e-05 0
0 -4.93779e-05 0
0 -1.58193e-05 0
0 -4.04762e-05 0
0 -8.57147e-05 0
0 -4.2953e-05 0
0 -7.82027e-05 0
0 -2.09499e-05 0
0 -3.31713e-05 0
0 -9.30599e-05 0
0 -7.26197e-05 0
0 -1.76801e-05 0
0 -2.06228e-05 0
0 -7.8371e-05 0
0 -1.84411e-05 0
0 -7.30662e-05 0
0 -4.11806e-05 0
0 -2.3265e-05 0
0 -4.23503e-05 0
0 -5.94919e-05 0
0 -4.22718e-05 0
0 -2.12723e-05 0
0 -1.86252e-05 0
0 -1.77849e-05 0
0 -3.82356e-05 0
0 -2.39658e-05 0
0 -1.62481e-05 0
0 -7.86148e-05 0
0 -1.61387e-05 0
0 -2.34763e-05 0
0 -2.95637e-05 0
0 -2.93742e-05 0
0 -1.33947e-05 0
0 -1.83735e-05 0
0 -2.05639e-05 0
0 -1.91062e-05 0
0 -1.84053e-05 0
0 -6.25793e-05 0
0 -4.49914e-05 0
0 -1.98914e-05 0
0 -1.58922e-05 0
0 -2.367e-05 0
0 -3.81266e-05 0
0 -4.36518e-05 0
0 -2.25472e-05 0
0 -0.000115119 0
0 -3.05886e-05 0
0 -1.32828e-05 0
0 -3.38507e-05 0
0 -1.78391e-05 0
0 -2.88237e-05 0
0 -1.34771e-05 0
0 -2.36876e-05 0
0 -2.06453e-05 0
0 -2.58912e-05 0
0 -2.10097e-05 0
0 -1.7602e-05 0
0 -3.13896e-05 0
0 -1.34386e-05 0
0 -2.38863e-05 0
0 -2.04203e-05 0
0 -1.33426e-05 0
0 -2.13076e-05 0
0 -1.86316e-05 0
0 -3.10974e-05 0
0 -2.56228e-05 0
0 -2.33161e-05 0
0 -1.57181e-05 0
0 -1.87061e-05 0
0 -5.38771e-05 0
0 -1.84308e-05 0
0 -3.08341e-05 0
0 -2.91652e-05 0
0 -1.16203e-05 0
0 -1.85667e-05 0
0 -2.00287e-05 0
0 -2.68375e-05 0
0 -2.37799e-05 0
0 -3.16945e-05 0
0 -3.13676e-05 0
0 -3.15313e-05 0
0 -1.90796e-05 0
0 -1.58134e-05 0
0 -1.83326e-05 0
0 -3.16308e-05 0
0 -2.07128e-05 0
0 -2.91276e-05 0
0 -6.03597e-05 0
0 -2.26581e-05 0
0 -2.35174e-05 0
0 -2.33506e-05 0
0 -2.59482e-05 0
0 -1.63393e-05 0
0 -1.78912e-05 0
0 -2.02658e-05 0
0 -5.62379e-05 0
0 -2.04507e-05 0
0 -2.14176e-05 0
0 -2.38895e-05 0
0 -3.05955e-05 0
0 -3.11287e-05 0
0 -2.01544e-05 0
0 -1.92198e-05 0
0 -2.99909e-05 0
0 -6.32085e-05 0
0 -2.04829e-05 0
0 -2.67435e-05 0
0 -2.11611e-05 0
0 -1.83262e-05 0
0 -1.96474e-05 0
0 -2.0699e-05 0
0 -2.83503e-05 0
0 -2.27807e-05 0
0 -2.35234e-05 0
0 -1.93874e-05 0
0 -6.29086e-05 0
0 -2.12117e-05 0
0 -3.22943e-05 0
0 -2.06229e-05 0
0 -2.61501e-05 0
0 -1.90721e-05 0
0 -2.86319e-05 0
0 -2.53212e-05 0
0 -2.07681e-05 0
0 -2.05553e-05 0
0 -1.88077e-05 0
0 -6.92631e-05 0
0 -2.20924e-05 0
0 -2.02457e-05 0
0 -6.16224e-05 0
0 -2.08117e-05 0
0 -2.85397e-05 0
0 -2.08875e-05 0
0 -6.32617e-05 0
0 -1.39008e-05 0
0 -2.0289e-05 0
0 -6.45558e-05 0
0 -2.47785e-05 0
0 -2.35177e-05 0
0 -7.28089e-06 0
0 -2.18143e-05 0
0 -6.93323e-06 0
0 -6.87344e-06 0
0 -8.76768e-06 0
0 -2.48719e-05 0
0 -2.22231e-05 0
0 -1.31068e-05 0
0 -7.69816e-06 0
0 -2.27889e-05 0
0 -5.95166e-06 0
0 -6.55579e-06 0
0 -6.71305e-06 0
0 -2.46468e-05 0
0 -2.27228e-05 0
0 -7.6878e-06 0
0 -6.67903e-06 0
0 -6.10861e-05 0
0 -6.6189e-06 0
0 -6.52665e-06 0
0 -6.87836e-06 0
0 -1.78856e-05 0
0 -1.87072e-05 0
0 -6.73674e-06 0
0 -6.91401e-06 0
0 -1.82903e-05 0
0 -2.2423e-05 0
0 -6.67521e-06 0
0 -7.02401e-06 0
0 -1.78908e-05 0
0 -5.89658e-06 0
0 -1.98938e-05 0
0 -7.3162e-06 0
0 -5.63509e-06 0
0 -1.76631e-05 0
0 -1.42638e-05 0
0 -2.22707e-05 0
0 -1.77204e-05 0
0 -2.11264e-05 0
0 -1.75686e-05 0
0 -1.76047e-05 0
0 -6.69346e-06 0
0 -2.20467e-05 0
0 -1.42479e-05 0
0 -1.76144e-05 0
0 -6.84615e-06 0
0 -6.12404e-06 0
0 -6.50125e-06 0
0 -1.41879e-05 0
0 -1.37476e-05 0
0 -2.11168e-05 0
0 -1.79377e-05 0
0 -1.37282e-05 0
0 -1.41198e-05 0
0 -2.15061e-05 0
0 -6.84475e-06 0
0 -1.74349e-05 0
0 -1.75758e-05 0
0 -6.41828e-06 0
0 -7.20025e-06 0
0 -2.30432e-05 0
0 -6.96894e-06 0
0 -6.44499e-06 0
0 -6.14414e-06 0
0 -2.14766e-05 0
0 -6.00855e-06 0
0 -5.92427e-06 0
0 -5.81567e-06 0
0 -5.02303e-06 0
0 -5.01945e-06 0
0 -4.85271e-06 0
0 -4.87573e-06 0
0 -4.8684e-06 0
0 -5.22951e-06 0
0 -4.84801e-06 0
0 -4.88396e-06 0
0 -4.77612e-06 0
0 -4.81304e-06 0
0 -4.85251e-06 0
0 -4.8555e-06 0
0 -4.82575e-06 0
0 -4.80313e-06 0
0 -4.86923e-06 0
0 -4.85781e-06 0
0 -4.73027e-06 0
0 -1.08748e-05 0
0 -5.22863e-06 0
0 -5.34413e-06 0
0 -5.26459e-06 0
0 -5.05624e-06 0
0 -4.92238e-06 0
0 -5.43253e-06 0
0 -5.43253e-06 0
0 -5.43253e-06 0
0 -5.43253e-06 0
0 -5.43253e-06 0
0 -5.43253e-06 0
0 -5.40321e-06 0
0 -5.40321e-06 0
0 -7.3113e-06 0
0 -6.98147e-06 0
0 -4.8949e-06 0

