# vtk DataFile Version 4.2
vtk output
ASCII
DATASET UNSTRUCTURED_GRID

POINTS 343 double
0.00113123 0.00419533 -1.92925e-07
0.00218758 0.00498339 0.00217478
0 0.00419538 0.00112517
0.00194586 0.0019554 0.00194162
0.00521733 0.00241347 0.00503089
0.00521707 0.00383508 0.00639579
0.00769147 0.00478589 0.00499721
0.00627877 0.00485733 0.00369094
0.00689968 0.00329828 0.00691137
0.00503225 0.00499665 0.00499862
0.00422029 0.00112373 0.00999731
0.00533038 0.00208742 0.00790202
0.0042323 -9.92271e-07 0.00831575
0.00202875 0.00200338 0.00803267
0.00432476 0.00253737 0.00999725
0.00701423 0.00645406 0.00694427
0.00646673 0.00618875 0.00518157
0.00227917 0.00218581 0.00514551
0 0.00143586 0.00417514
0.00160704 0.00346673 0.00403667
0.00690195 0.0032041 0.00316081
0.0078219 0.00222666 0.00506209
0 0.00270918 0.00154168
0.00419912 0.0014344 7.45461e-08
0.00505545 0.00219463 0.00219734
0.0039969 0.00352994 0.00160267
0.0013573 9.99738e-08 0.00405962
0.00422647 -1.02108e-06 0.00168755
0.00264681 0.00695287 -8.75007e-08
0.00195214 0.00805349 0.00194439
0.00412026 0.00625045 0.00164472
0.00806821 0.0079949 0.00799351
0.00803694 0.00482651 0.0080185
0.00846274 0.00609071 0.00594549
0.0100877 0.00883939 0.00419036
0.00763884 0.00764393 0.00496211
0.00863557 0.00998987 0.00416535
0.00804332 0.00798027 0.00201603
0.00356599 0.00303912 0.00695852
0.00447555 0.00366556 0.00832222
0.00392819 0.00160508 0.00596785
0.00504338 0.00767209 0.00767478
0.0020037 0.00800869 0.00798921
0.00284632 0.00999884 0.00712658
0.00394468 0.00840208 0.00595687
0 0.00695361 0.00262895
0.00165867 0.00623989 0.00408749
0 0.0040177 0.00850214
0.00233243 0.00498664 0.00766096
0.00144414 0.00417499 0.0099996
0.00723418 0.00712551 0.00999387
0.0061687 0.00597642 0.00841451
0.00206661 0.00794222 0.00474137
0.00306635 0.00694432 0.00646708
0.00159866 0.00607892 0.00592562
0.0100837 0.00579928 0.00830986
0 0.00718191 0.00711644
0.00159658 0.00577405 -2.59332e-07
0 0.00577432 0.00158701
0.0100855 0.00717186 0.00711
0.0028912 0.00335102 0.00999842
0.0100771 0.00143049 0.0041722
0.00811806 0.00195791 0.00197872
0.0084705 0.00351583 0.00399687
0.00376014 0.00165232 0.00412728
0.00151937 0.0100001 0.00581469
0.00283734 -2.50612e-07 0.00712694
0.00616372 0.00417815 0.00837308
0.0100848 0.00726361 0.00419253
0.00862103 -2.96388e-06 0.00416572
0.0033714 0.00287237 1.26854e-08
0.00272441 0.00154119 0.00999854
0.00284648 -2.78677e-07 0.00283128
0.00483736 0.00519776 0.00755233
0.00318456 0.00314824 0.00316653
0 0.00849157 0.00581511
0.0049074 0.00367426 0.00378518
0.00154943 0.00270913 -2.46587e-07
0.0058445 0.00832103 0.00999521
0.00602856 0.00999464 0.00850195
0.00424369 0.00999722 0.00831565
0.00404763 0.00850127 0.00999714
0.0100873 0.00848066 0.00581009
0.00317121 0.00683509 0.00315006
0 0.00748929 0.00137438
0.0013834 0.0074894 -2.81113e-07
0 0.00287343 0.00335182
0 0.00580816 0.00831736
0 0.00429792 0.00253898
0.00255422 0.00429723 -3.97827e-08
0.00144443 0.00581966 0.00999958
0.00521621 0.00647259 0.00639838
0.00363106 0.00651116 0.00823251
0.00699928 0.00262371 0.00999437
0.00807951 0.00195423 0.00803022
0.00701598 -2.36452e-06 0.00308088
0.00605976 0.00166203 0.00361161
0.0100787 0.00286692 0.00334977
0 0.00140616 0.00256446
0.00642266 0.00822274 0.00641816
0.00585591 0.00143311 4.99688e-07
0.00607819 0.00354883 0.00160298
0.0031785 0.00999845 0.00582429
0.00863044 0.00998998 0.00582929
0.00257782 0.00140563 -1.84126e-08
0.00601356 -1.73737e-06 0.00149402
0.00632929 0.0082827 0.00361601
0.00861589 -2.97323e-06 0.0058294
0.00624691 0.00167036 0.00636255
0.00141344 0.00256448 0.00999963
0.0071716 0.00717544 4.62182e-07
0.00520506 0.0076865 0.00216843
0.00598615 0.00608921 0.00160168
0 0.00686719 0.00578184
0.0100771 0.0014009 0.00256311
0.00178602 0.00361056 0.00640739
0.0100871 0.00847586 0.00262208
0.00847807 0.00618187 0.00413052
0.0060276 0.00999425 0.0014937
0.00701532 -2.19387e-06 0.00692279
0.0100774 0.00143007 0.00581469
0.00846005 0.00356769 0.00605681
0.00151513 6.60389e-08 0.00581481
0 0.0013659 0.00748679
0.00137563 1.16954e-07 0.00752864
0.0100844 0.00685714 0.00577702
0.00586108 0.00848658 4.50007e-07
0 0.0075208 0.00859127
0.00137495 0.00748688 0.00999954
0.00426191 0.0082033 0.00362736
0.00866425 0.00999004 0.0075064
0.0100882 0.00861924 0.0075195
0.00581156 0.00158451 0.00999551
0.00731213 0.00418315 0.00999398
0 0.0057735 0.00666667
0.00137943 0.0100001 0.00752859
0 0.00863025 0.00752641
0.0086481 -2.96023e-06 0.00250638
0.0100843 0.00694319 0.00262734
0.00852592 0.00633435 0.00216228
0.00857632 0.00581658 0.00999247
0.00754163 0.00137063 0.00999373
0.00864977 -2.97085e-06 0.0075066
0.010078 0.00136064 0.00748002
0 0.00143551 0.00581971
0.00601422 -1.72109e-06 0.00850208
0.00423622 -9.11315e-07 0.00339903
0.00799343 0.00470175 0.00203408
0.0100805 0.00429033 0.00253784
0.00426068 0.00999704 0.00666486
0.0028556 0.00999886 0.00283132
0.00131862 1.07912e-07 0.00241786
0 0.00727418 0.00419576
0.0100831 0.00576484 0.00666076
0.00703076 0.00999265 0.00308048
0.00756868 0.0086297 0.00999344
0 0.00574334 0.00336387
0 0.0043297 0.00416652
0.00692113 0.00577901 0.00999422
0.0100796 0.00301571 0.00690907
0.00424863 -8.82492e-07 0.00666497
0.00249691 0.00999902 0.00861057
0.00753741 0.00136232 5.84973e-07
0.00581742 0.00666274 0.00999535
0.0100867 0.00751067 0.00858346
0.00867897 0.00754513 0.00999225
0.00696246 0.00301833 5.52888e-07
0.00338611 0.00574213 3.29258e-08
0.00758791 0.00862249 4.28099e-07
0.00757845 0.00999152 0.00138707
0.00582471 0.00686283 4.26661e-07
0.00702702 0.00636501 0.00303231
0.0075637 -2.56673e-06 0.00138748
0.00290327 0.0049985 0.00999838
0.00436067 0.00583154 0.00999692
0.00435834 0.00416479 0.00999701
0.0075793 0.00999204 0.00861016
0.00248893 -1.36494e-07 0.00861074
0.0100823 0.00573479 0.00336176
0 0.00302218 0.00691532
0.0100814 0.00401051 0.00849452
0.00856591 0.00401174 8.52312e-07
0.0100786 0.00270268 0.00154145
0 0.00244495 0.00857025
0.00246365 0.00856955 0.00999857
0.00756488 -2.56464e-06 0.00861035
0.00855021 0.00261875 0.00999259
0.00892005 0.00418744 0.00999214
0.00571625 0.00999498 0.0058309
0.00522443 0.00758007 0.00503067
0.00568809 0.00999492 0.0042137
0.00702977 0.0099929 0.0069226
0.00304382 0.00691467 0.00999813
0.00419305 0.00432782 2.25201e-07
0.00284915 -4.82092e-07 0.00440387
0.0031688 -4.19793e-07 0.00582446
0.0100807 0.00418785 0.00112521
0.00366488 0.0083357 0.00158786
0.0100805 0.00432197 0.00416331
0.0067154 0.00576846 5.54616e-07
0.00866263 0.0099897 0.00250592
0 0.00848692 0.00262374
0.00136128 0.0100001 0.00405958
0 0.00885053 0.00419359
0.00422645 0.00884768 1.64505e-07
0.00423817 0.00999694 0.00168733
0.0050321 0.0047887 0.00237837
0.00727139 0.00451664 6.24907e-07
0.00567443 -1.65207e-06 0.00421419
0.00570253 -1.64429e-06 0.00583119
0.00132252 0.0100001 0.00241773
0.00863259 0.00243987 8.58704e-07
0.0100816 0.00451401 0.00721296
0.00717412 0.00999248 0.00499768
0.0057822 0.00336091 0.00999565
0.00247009 -1.04678e-07 0.00135616
0.0100797 0.00243892 0.00856254
0.00241015 0.00479086 0.00499932
0.00587296 0.0043267 5.11626e-07
0.00838165 0.00580084 6.47893e-07
0.00552387 0.00999538 0.00721756
0.0100809 0.00432247 0.00582834
0.00544629 0.00999523 0.00277481
0.00715937 -2.29082e-06 0.00499811
0.00285804 0.00999888 0.0044037
0 0.00452174 0.00721958
0.00455523 0.00721765 0.00999664
0.00551019 -1.53123e-06 0.00721752
0.0036264 0.0050726 0.00359566
0.00428528 0.00999696 0.00500686
0.00427306 -7.98923e-07 0.00500715
0.00369504 0.0052156 0.00617349
0 0.005744 0.00499998
0 0.00433013 0.00583333
0.00503467 0.00574106 3.70817e-07
0.00501978 0.00633615 0.00355274
0.00543292 -1.5727e-06 0.00277514
0.0100825 0.00573562 0.00499584
0.00371588 0.00640645 0.00484295
0.005785 0.00499669 0.00999557
0.0100826 0.00576556 0.00158673
0 0.00666667 0
0.00866139 0.00751212 5.98554e-07
0.00335058 -5.16528e-07 1.48531e-08
0 0.01 0.00666667
0.00504278 0.00999597 0.00999619
0 0.00288419 0.00499914
0.0100854 0.00747844 0.0013742
0.0100845 0.00665685 4.81879e-07
0 0.005 0.01
0.00503039 0.00288199 3.34183e-07
0 0.005 0
0.0100763 -3.01142e-06 0.00333132
0.010091 0.00998737 0.00666055
0.00422627 0.00727185 1.96519e-07
0.0100789 0.00287793 0.0049951
0.00502892 -1.13897e-06 1.17317e-07
0 0 0.00666667
0.00382193 0.00361537 0.00522523
0.00503004 -1.3063e-06 0.00999647
0.010077 -3.05363e-06 0.00666071
0 0 0.005
0.00885628 0.00998922 0.00121993
0.0100878 0.0087684 0.00121988
0.0100765 -3.02384e-06 0.00499598
0.0100823 0.00499174 7.1324e-07
0.00122572 0.00121994 -2.41715e-07
0 0.00122008 0.00122008
0 0.00333333 0.01
0 0.00666667 0.01
0.00885451 0.00877002 5.76324e-07
0.0100904 0.00998718 0.00333078
0.00424822 0.00999696 0.00339874
0.0100865 0.00665719 0.00999053
0 0.00333333 0
0 0.00122008 0.00877992
0.00122565 6.82906e-08 0.00877955
0.00122606 0.00122005 0.00999973
0.00885743 0.00998979 0.00877278
0.00122853 0.00877992 0.00999958
0 0.00877992 0.00877992
0.010089 0.00876878 0.00877185
0.00672304 0.00999288 2.05426e-07
0.010077 0.00121514 0.00122005
0.0012291 0.00999993 0.00877967
0.00885562 0.00877056 0.00999198
0.010084 0.00499188 0.0099906
0 0 0.00333333
0.00670866 -1.82589e-06 3.02804e-07
0.00884179 -2.97227e-06 0.00122032
0.00121684 8.41811e-08 0.00121155
0 0.00877992 0.00122008
0.00122854 0.00877987 -1.83782e-07
0.0012205 0.00999997 0.00121123
0.0100784 0.00121501 0.00877193
0.00884489 0.00121574 0.00999224
0.00671007 -2.06177e-06 0.00999464
0.00884321 0.00121598 8.42639e-07
0.00884307 -3.09385e-06 0.00877291
0.01008 0.0033264 8.26259e-07
0.00336125 0.00999803 0.00999796
0.0024783 0.00999911 0.00135594
0.00672461 0.00999344 0.00999445
0.0100817 0.00332678 0.00999074
0 0.01 0.005
0.0026433 0.00848605 -8.87305e-08
0.0100906 0.00998723 0.00499591
0 0.01 0.00333333
0 0.00166667 0
0.0100763 -3.1271e-06 0.00166623
0 0.00166667 0.01
0 0.00833333 0
0.0100876 0.00832196 7.09797e-07
0.0100775 -3.23524e-06 0.00832571
0.0100904 0.00998717 0.00166591
0.0100916 0.00998752 0.00832561
0.00167996 0.00999941 0.00999931
0 0.01 0.00833333
0.00840564 0.00998981 2.68163e-07
0.00839104 -2.57447e-06 5.14886e-07
0.00839267 -2.92017e-06 0.00999286
0.008407 0.00999059 0.00999253
0 0 0.00833333
0.0100891 0.00832263 0.00999054
0.00167407 3.14453e-08 -2.09264e-07
0 0 0.00166667
0.00336085 0.00999803 -5.95501e-08
0.0100798 0.0016611 0.00999077
0.010078 0.00166127 8.02503e-07
0.00167459 3.26232e-09 0.00999943
0.00167981 0.00999958 -1.99913e-07
0 0.01 0.00166667
0.0100921 0.00998767 0.00999064
0 0 0.01
0.0100907 0.00998711 5.07399e-07
0.010078 -3.48719e-06 0.0099909
0 0.01 0.01
0.0100763 -3.06051e-06 6.36433e-07
0 0.01 0
0 0 0
0.00504167 0.00999559 1.45876e-07
0.00335144 -6.5643e-07 0.00999793
0 0.00833333 0.01

CELLS 343 686
1 0
1 1
1 2
1 3
1 4
1 5
1 6
1 7
1 8
1 9
1 10
1 11
1 12
1 13
1 14
1 15
1 16
1 17
1 18
1 19
1 20
1 21
1 22
1 23
1 24
1 25
1 26
1 27
1 28
1 29
1 30
1 31
1 32
1 33
1 34
1 35
1 36
1 37
1 38
1 39
1 40
1 41
1 42
1 43
1 44
1 45
1 46
1 47
1 48
1 49
1 50
1 51
1 52
1 53
1 54
1 55
1 56
1 57
1 58
1 59
1 60
1 61
1 62
1 63
1 64
1 65
1 66
1 67
1 68
1 69
1 70
1 71
1 72
1 73
1 74
1 75
1 76
1 77
1 78
1 79
1 80
1 81
1 82
1 83
1 84
1 85
1 86
1 87
1 88
1 89
1 90
1 91
1 92
1 93
1 94
1 95
1 96
1 97
1 98
1 99
1 100
1 101
1 102
1 103
1 104
1 105
1 106
1 107
1 108
1 109
1 110
1 111
1 112
1 113
1 114
1 115
1 116
1 117
1 118
1 119
1 120
1 121
1 122
1 123
1 124
1 125
1 126
1 127
1 128
1 129
1 130
1 131
1 132
1 133
1 134
1 135
1 136
1 137
1 138
1 139
1 140
1 141
1 142
1 143
1 144
1 145
1 146
1 147
1 148
1 149
1 150
1 151
1 152
1 153
1 154
1 155
1 156
1 157
1 158
1 159
1 160
1 161
1 162
1 163
1 164
1 165
1 166
1 167
1 168
1 169
1 170
1 171
1 172
1 173
1 174
1 175
1 176
1 177
1 178
1 179
1 180
1 181
1 182
1 183
1 184
1 185
1 186
1 187
1 188
1 189
1 190
1 191
1 192
1 193
1 194
1 195
1 196
1 197
1 198
1 199
1 200
1 201
1 202
1 203
1 204
1 205
1 206
1 207
1 208
1 209
1 210
1 211
1 212
1 213
1 214
1 215
1 216
1 217
1 218
1 219
1 220
1 221
1 222
1 223
1 224
1 225
1 226
1 227
1 228
1 229
1 230
1 231
1 232
1 233
1 234
1 235
1 236
1 237
1 238
1 239
1 240
1 241
1 242
1 243
1 244
1 245
1 246
1 247
1 248
1 249
1 250
1 251
1 252
1 253
1 254
1 255
1 256
1 257
1 258
1 259
1 260
1 261
1 262
1 263
1 264
1 265
1 266
1 267
1 268
1 269
1 270
1 271
1 272
1 273
1 274
1 275
1 276
1 277
1 278
1 279
1 280
1 281
1 282
1 283
1 284
1 285
1 286
1 287
1 288
1 289
1 290
1 291
1 292
1 293
1 294
1 295
1 296
1 297
1 298
1 299
1 300
1 301
1 302
1 303
1 304
1 305
1 306
1 307
1 308
1 309
1 310
1 311
1 312
1 313
1 314
1 315
1 316
1 317
1 318
1 319
1 320
1 321
1 322
1 323
1 324
1 325
1 326
1 327
1 328
1 329
1 330
1 331
1 332
1 333
1 334
1 335
1 336
1 337
1 338
1 339
1 340
1 341
1 342

CELL_TYPES 343
1
1
1
1
1
1
1
1
1
1
1
1
1
1
1
1
1
1
1
1
1
1
1
1
1
1
1
1
1
1
1
1
1
1
1
1
1
1
1
1
1
1
1
1
1
1
1
1
1
1
1
1
1
1
1
1
1
1
1
1
1
1
1
1
1
1
1
1
1
1
1
1
1
1
1
1
1
1
1
1
1
1
1
1
1
1
1
1
1
1
1
1
1
1
1
1
1
1
1
1
1
1
1
1
1
1
1
1
1
1
1
1
1
1
1
1
1
1
1
1
1
1
1
1
1
1
1
1
1
1
1
1
1
1
1
1
1
1
1
1
1
1
1
1
1
1
1
1
1
1
1
1
1
1
1
1
1
1
1
1
1
1
1
1
1
1
1
1
1
1
1
1
1
1
1
1
1
1
1
1
1
1
1
1
1
1
1
1
1
1
1
1
1
1
1
1
1
1
1
1
1
1
1
1
1
1
1
1
1
1
1
1
1
1
1
1
1
1
1
1
1
1
1
1
1
1
1
1
1
1
1
1
1
1
1
1
1
1
1
1
1
1
1
1
1
1
1
1
1
1
1
1
1
1
1
1
1
1
1
1
1
1
1
1
1
1
1
1
1
1
1
1
1
1
1
1
1
1
1
1
1
1
1
1
1
1
1
1
1
1
1
1
1
1
1
1
1
1
1
1
1
1
1
1
1
1
1
1
1
1
1
1
1
1
1
1
1
1
1
1
1
1
1
1
1
1
1
1
1
1
1
1
1
1
1
1
1
1
1
1
1
1
1

POINT_DATA 343
FIELD FieldData 3

ExternalForceID_(#) 1 343 int
0
1
2
3
4
5
6
7
8
9
10
11
12
13
14
15
16
17
18
19
20
21
22
23
24
25
26
27
28
29
30
31
32
33
34
35
36
37
38
39
40
41
42
43
44
45
46
47
48
49
50
51
52
53
54
55
56
57
58
59
60
61
62
63
64
65
66
67
68
69
70
71
72
73
74
75
76
77
78
79
80
81
82
83
84
85
86
87
88
89
90
91
92
93
94
95
96
97
98
99
100
101
102
103
104
105
106
107
108
109
110
111
112
113
114
115
116
117
118
119
120
121
122
123
124
125
126
127
128
129
130
131
132
133
134
135
136
137
138
139
140
141
142
143
144
145
146
147
148
149
150
151
152
153
154
155
156
157
158
159
160
161
162
163
164
165
166
167
168
169
170
171
172
173
174
175
176
177
178
179
180
181
182
183
184
185
186
187
188
189
190
191
192
193
194
195
196
197
198
199
200
201
202
203
204
205
206
207
208
209
210
211
212
213
214
215
216
217
218
219
220
221
222
223
224
225
226
227
228
229
230
231
232
233
234
235
236
237
238
239
240
241
242
243
244
245
246
247
248
249
250
251
252
253
254
255
256
257
258
259
260
261
262
263
264
265
266
267
268
269
270
271
272
273
274
275
276
277
278
279
280
281
282
283
284
285
286
287
288
289
290
291
292
293
294
295
296
297
298
299
300
301
302
303
304
305
306
307
308
309
310
311
312
313
314
315
316
317
318
319
320
321
322
323
324
325
326
327
328
329
330
331
332
333
334
335
336
337
338
339
340
341
342

ExternalForceType_(0/1/2/3/4) 1 343 int
0
0
0
0
0
0
0
0
0
0
0
0
0
0
0
0
0
0
0
0
0
0
0
0
0
0
0
0
0
0
0
0
0
0
0
0
0
0
0
0
0
0
0
0
0
0
0
0
0
0
0
0
0
0
0
0
0
0
0
0
0
0
0
0
0
0
0
0
0
0
0
0
0
0
0
0
0
0
0
0
0
0
0
0
0
0
0
0
0
0
0
0
0
0
0
0
0
0
0
0
0
0
0
0
0
0
0
0
0
0
0
0
0
0
0
0
0
0
0
0
0
0
0
0
0
0
0
0
0
0
0
0
0
0
0
0
0
0
0
0
0
0
0
0
0
0
0
0
0
0
0
0
0
0
0
0
0
0
0
0
0
0
0
0
0
0
0
0
0
0
0
0
0
0
0
0
0
0
0
0
0
0
0
0
0
0
0
0
0
0
0
0
0
0
0
0
0
0
0
0
0
0
0
0
0
0
0
0
0
0
0
0
0
0
0
0
0
0
0
0
0
0
0
0
0
0
0
0
0
0
0
0
0
0
0
0
0
0
0
0
0
0
0
0
0
0
0
0
0
0
0
0
0
0
0
0
0
0
0
0
0
0
0
0
0
0
0
0
0
0
0
0
0
0
0
0
0
0
0
0
0
0
0
0
0
0
0
0
0
0
0
0
0
0
0
0
0
0
0
0
0
0
0
0
0
0
0
0
0
0
0
0
0
0
0
0
0
0
0
0
0
0
0
0
0
0
0
0
0
0
0
0
0
0
0
0
0
0
0
0
0
0
0

ExternalForce_(N) 3 343 double
0 -3.09568e-05 0
0 -0.000138619 0
0 -2.16714e-05 0
0 -0.000168226 0
0 -8.26002e-05 0
0 -8.9203e-05 0
0 -9.74165e-05 0
0 -7.37906e-05 0
0 -6.68156e-05 0
0 -5.47617e-05 0
0 -3.04981e-05 0
0 -0.000105531 0
0 -4.77758e-05 0
0 -0.000161821 0
0 -2.96713e-05 0
0 -7.9067e-05 0
0 -6.57564e-05 0
0 -0.000106704 0
0 -4.11017e-05 0
0 -8.006e-05 0
0 -6.02474e-05 0
0 -0.000115662 0
0 -2.18875e-05 0
0 -4.17098e-05 0
0 -0.000107827 0
0 -7.27379e-05 0
0 -4.13856e-05 0
0 -3.85027e-05 0
0 -3.029e-05 0
0 -0.000128774 0
0 -7.57947e-05 0
0 -0.000162261 0
0 -0.000116775 0
0 -7.15802e-05 0
0 -3.74431e-05 0
0 -0.000108892 0
0 -3.74072e-05 0
0 -0.000136493 0
0 -6.25303e-05 0
0 -7.85756e-05 0
0 -7.52544e-05 0
0 -0.000116589 0
0 -0.000160874 0
0 -2.73339e-05 0
0 -8.7662e-05 0
0 -2.53184e-05 0
0 -7.42972e-05 0
0 -4.15199e-05 0
0 -0.000128792 0
0 -3.72945e-05 0
0 -2.72189e-05 0
0 -7.03157e-05 0
0 -0.000119003 0
0 -5.02041e-05 0
0 -8.04153e-05 0
0 -4.4939e-05 0
0 -2.74192e-05 0
0 -3.19929e-05 0
0 -4.04607e-05 0
0 -2.07889e-05 0
0 -3.28809e-05 0
0 -3.54797e-05 0
0 -0.000153858 0
0 -7.19739e-05 0
0 -8.09026e-05 0
0 -4.90862e-05 0
0 -2.77255e-05 0
0 -7.06591e-05 0
0 -3.20606e-05 0
0 -4.10794e-05 0
0 -1.98932e-05 0
0 -2.37551e-05 0
0 -3.0591e-05 0
0 -5.86107e-05 0
0 -5.75946e-05 0
0 -4.01595e-05 0
0 -5.35099e-05 0
0 -2.24477e-05 0
0 -4.41213e-05 0
0 -4.29866e-05 0
0 -4.42325e-05 0
0 -4.30889e-05 0
0 -4.19155e-05 0
0 -5.21923e-05 0
0 -1.5029e-05 0
0 -2.34331e-05 0
0 -1.9903e-05 0
0 -4.30461e-05 0
0 -3.11931e-05 0
0 -3.08326e-05 0
0 -4.52797e-05 0
0 -5.7648e-05 0
0 -8.02544e-05 0
0 -2.43623e-05 0
0 -0.000150893 0
0 -3.43039e-05 0
0 -7.21258e-05 0
0 -1.97489e-05 0
0 -2.00202e-05 0
0 -7.83017e-05 0
0 -4.32908e-05 0
0 -7.00326e-05 0
0 -1.17841e-05 0
0 -4.93779e-05 0
0 -1.58193e-05 0
0 -4.04762e-05 0
0 -8.57147e-05 0
0 -4.2953e-05 0
0 -7.82027e-05 0
0 -2.09499e-05 0
0 -3.31713e-05 0
0 -9.30599e-05 0
0 -7.26197e-05 0
0 -1.76801e-05 0
0 -2.06228e-05 0
0 -7.8371e-05 0
0 -1.84411e-05 0
0 -7.30662e-05 0
0 -4.11806e-05 0
0 -2.3265e-05 0
0 -4.23503e-05 0
0 -5.94919e-05 0
0 -4.22718e-05 0
0 -2.12723e-05 0
0 -1.86252e-05 0
0 -1.77849e-05 0
0 -3.82356e-05 0
0 -2.39658e-05 0
0 -1.62481e-05 0
0 -7.86148e-05 0
0 -1.61387e-05 0
0 -2.34763e-05 0
0 -2.95637e-05 0
0 -2.93742e-05 0
0 -1.33947e-05 0
0 -1.83735e-05 0
0 -2.05639e-05 0
0 -1.91062e-05 0
0 -1.84053e-05 0
0 -6.25793e-05 0
0 -4.49914e-05 0
0 -1.98914e-05 0
0 -1.58922e-05 0
0 -2.367e-05 0
0 -3.81266e-05 0
0 -4.36518e-05 0
0 -2.25472e-05 0
0 -0.000115119 0
0 -3.05886e-05 0
0 -1.32828e-05 0
0 -3.38507e-05 0
0 -1.78391e-05 0
0 -2.88237e-05 0
0 -1.34771e-05 0
0 -2.36876e-05 0
0 -2.06453e-05 0
0 -2.58912e-05 0
0 -2.10097e-05 0
0 -1.7602e-05 0
0 -3.13896e-05 0
0 -1.34386e-05 0
0 -2.38863e-05 0
0 -2.04203e-05 0
0 -1.33426e-05 0
0 -2.13076e-05 0
0 -1.86316e-05 0
0 -3.10974e-05 0
0 -2.56228e-05 0
0 -2.33161e-05 0
0 -1.57181e-05 0
0 -1.87061e-05 0
0 -5.38771e-05 0
0 -1.84308e-05 0
0 -3.08341e-05 0
0 -2.91652e-05 0
0 -1.16203e-05 0
0 -1.85667e-05 0
0 -2.00287e-05 0
0 -2.68375e-05 0
0 -2.37799e-05 0
0 -3.16945e-05 0
0 -3.13676e-05 0
0 -3.15313e-05 0
0 -1.90796e-05 0
0 -1.58134e-05 0
0 -1.83326e-05 0
0 -3.16308e-05 0
0 -2.07128e-05 0
0 -2.91276e-05 0
0 -6.03597e-05 0
0 -2.26581e-05 0
0 -2.35174e-05 0
0 -2.33506e-05 0
0 -2.59482e-05 0
0 -1.63393e-05 0
0 -1.78912e-05 0
0 -2.02658e-05 0
0 -5.62379e-05 0
0 -2.04507e-05 0
0 -2.14176e-05 0
0 -2.38895e-05 0
0 -3.05955e-05 0
0 -3.11287e-05 0
0 -2.01544e-05 0
0 -1.92198e-05 0
0 -2.99909e-05 0
0 -6.32085e-05 0
0 -2.04829e-05 0
0 -2.67435e-05 0
0 -2.11611e-05 0
0 -1.83262e-05 0
0 -1.96474e-05 0
0 -2.0699e-05 0
0 -2.83503e-05 0
0 -2.27807e-05 0
0 -2.35234e-05 0
0 -1.93874e-05 0
0 -6.29086e-05 0
0 -2.12117e-05 0
0 -3.22943e-05 0
0 -2.06229e-05 0
0 -2.61501e-05 0
0 -1.90721e-05 0
0 -2.86319e-05 0
0 -2.53212e-05 0
0 -2.07681e-05 0
0 -2.05553e-05 0
0 -1.88077e-05 0
0 -6.92631e-05 0
0 -2.20924e-05 0
0 -2.02457e-05 0
0 -6.16224e-05 0
0 -2.08117e-05 0
0 -2.85397e-05 0
0 -2.08875e-05 0
0 -6.32617e-05 0
0 -1.39008e-05 0
0 -2.0289e-05 0
0 -6.45558e-05 0
0 -2.47785e-05 0
0 -2.35177e-05 0
0 -7.28089e-06 0
0 -2.18143e-05 0
0 -6.93323e-06 0
0 -6.87344e-06 0
0 -8.76768e-06 0
0 -2.48719e-05 0
0 -2.22231e-05 0
0 -1.31068e-05 0
0 -7.69816e-06 0
0 -2.27889e-05 0
0 -5.95166e-06 0
0 -6.55579e-06 0
0 -6.71305e-06 0
0 -2.46468e-05 0
0 -2.27228e-05 0
0 -7.6878e-06 0
0 -6.67903e-06 0
0 -6.10861e-05 0
0 -6.6189e-06 0
0 -6.52665e-06 0
0 -6.87836e-06 0
0 -1.78856e-05 0
0 -1.87072e-05 0
0 -6.73674e-06 0
0 -6.91401e-06 0
0 -1.82903e-05 0
0 -2.2423e-05 0
0 -6.67521e-06 0
0 -7.02401e-06 0
0 -1.78908e-05 0
0 -5.89658e-06 0
0 -1.98938e-05 0
0 -7.3162e-06 0
0 -5.63509e-06 0
0 -1.76631e-05 0
0 -1.42638e-05 0
0 -2.22707e-05 0
0 -1.77204e-05 0
0 -2.11264e-05 0
0 -1.75686e-05 0
0 -1.76047e-05 0
0 -6.69346e-06 0
0 -2.20467e-05 0
0 -1.42479e-05 0
0 -1.76144e-05 0
0 -6.84615e-06 0
0 -6.12404e-06 0
0 -6.50125e-06 0
0 -1.41879e-05 0
0 -1.37476e-05 0
0 -2.11168e-05 0
0 -1.79377e-05 0
0 -1.37282e-05 0
0 -1.41198e-05 0
0 -2.15061e-05 0
0 -6.84475e-06 0
0 -1.74349e-05 0
0 -1.75758e-05 0
0 -6.41828e-06 0
0 -7.20025e-06 0
0 -2.30432e-05 0
0 -6.96894e-06 0
0 -6.44499e-06 0
0 -6.14414e-06 0
0 -2.14766e-05 0
0 -6.00855e-06 0
0 -5.92427e-06 0
0 -5.81567e-06 0
0 -5.02303e-06 0
0 -5.01945e-06 0
0 -4.85271e-06 0
0 -4.87573e-06 0
0 -4.8684e-06 0
0 -5.22951e-06 0
0 -4.84801e-06 0
0 -4.88396e-06 0
0 -4.77612e-06 0
0 -4.81304e-06 0
0 -4.85251e-06 0
0 -4.8555e-06 0
0 -4.82575e-06 0
0 -4.80313e-06 0
0 -4.86923e-06 0
0 -4.85781e-06 0
0 -4.73027e-06 0
0 -1.08748e-05 0
0 -5.22863e-06 0
0 -5.34413e-06 0
0 -5.26459e-06 0
0 -5.05624e-06 0
0 -4.92238e-06 0
0 -5.43253e-06 0
0 -5.43253e-06 0
0 -5.43253e-06 0
0 -5.43253e-06 0
0 -5.43253e-06 0
0 -5.43253e-06 0
0 -5.40321e-06 0
0 -5.40321e-06 0
0 -7.3113e-06 0
0 -6.98147e-06 0
0 -4.8949e-06 0

