# vtk DataFile Version 4.2
vtk output
ASCII
DATASET UNSTRUCTURED_GRID

POINTS 343 double
0.00112279 0.00419478 1.28084e-07
0.00217164 0.00498209 0.00217559
0 0.00419538 0.00112517
0.00192935 0.00195404 0.00194236
0.00516491 0.00240303 0.00503399
0.00516849 0.00382674 0.00639938
0.00762097 0.0047681 0.00500305
0.00622471 0.00484558 0.00369447
0.00683024 0.00328234 0.00691739
0.00499024 0.00498963 0.00500141
0.00417239 0.00111504 0.0100007
0.00527354 0.00207605 0.00790623
0.00418191 -1.07309e-05 0.00831858
0.00201032 0.00200211 0.00803352
0.00427962 0.00253022 0.0100009
0.00695597 0.00644097 0.00695038
0.00641455 0.00617746 0.00518584
0.00225903 0.00218409 0.00514638
0 0.00143586 0.00417514
0.00159413 0.00346598 0.00403709
0.00683489 0.00318754 0.00316485
0.007739 0.00220464 0.00506825
0 0.00270918 0.00154168
0.00415692 0.00142536 1.68165e-06
0.00500531 0.00218388 0.00220021
0.00396265 0.00352471 0.00160459
0.00134386 -7.61356e-07 0.00406015
0.0041791 -1.10075e-05 0.00168994
0.00262912 0.00695098 7.18508e-07
0.00193984 0.00805249 0.00194514
0.00409042 0.00624644 0.00164661
0.00800402 0.00797801 0.0080019
0.00795984 0.0048076 0.0080269
0.00838806 0.00607083 0.00595282
0.0100061 0.00881329 0.00419842
0.00758082 0.00762847 0.00496758
0.00857631 0.00997052 0.00417139
0.00798444 0.00796307 0.00202051
0.00353304 0.003035 0.00696033
0.004433 0.00365956 0.00832568
0.00388764 0.0015981 0.00596993
0.00500622 0.00766517 0.00767859
0.00198978 0.00800751 0.0079898
0.00283002 0.00999625 0.00712751
0.00391903 0.00839754 0.00595868
0 0.00695361 0.00262895
0.00164684 0.00623898 0.00408803
0 0.0040177 0.00850214
0.00231429 0.00498527 0.00766179
0.00143233 0.00417427 0.01
0.00717267 0.00711166 0.0100018
0.00611573 0.00596622 0.00842025
0.00205272 0.00794115 0.00474203
0.00304408 0.0069421 0.00646818
0.00158684 0.00607814 0.00592614
0.00998543 0.00577153 0.00832132
0 0.00718191 0.00711644
0.00158562 0.00577317 1.78958e-07
0 0.00577432 0.00158701
0.00999429 0.00714532 0.00712072
0.00286392 0.00334829 0.0100005
0.0099626 0.00139569 0.00418069
0.00803263 0.00193367 0.00198363
0.00838634 0.00349275 0.00400309
0.00372212 0.00164574 0.00412917
0.00151052 0.0099996 0.00581508
0.00280449 -5.10321e-06 0.00712822
0.00610445 0.00416673 0.00837872
0.00999688 0.00723734 0.00420077
0.00851857 -3.2763e-05 0.00417249
0.00334235 0.00286822 1.07054e-06
0.00269551 0.00153764 0.0100005
0.00281454 -5.5417e-06 0.00283253
0.00479541 0.0051915 0.00755593
0.00315709 0.00314516 0.00316794
0 0.00849157 0.00581511
0.00486318 0.0036665 0.0037878
0.00153711 0.00270851 1.33305e-07
0.00579942 0.0083115 0.010001
0.00598848 0.00998445 0.00850776
0.0042166 0.00999157 0.00831873
0.00401768 0.00849599 0.0100003
0.0100028 0.0084547 0.00581956
0.00314887 0.00683266 0.00315148
0 0.00748929 0.00137438
0.00137467 0.00748896 5.71473e-08
0 0.00287343 0.00335182
0 0.00580816 0.00831736
0 0.00429792 0.00253898
0.00253508 0.0042952 6.86887e-07
0.00143316 0.00581903 0.01
0.00517554 0.00646549 0.00640181
0.00360229 0.00650823 0.0082348
0.00692251 0.00260621 0.0100019
0.00798923 0.00193071 0.00803856
0.00693427 -2.41263e-05 0.00308537
0.00599585 0.0016469 0.00361531
0.00997152 0.00283459 0.0033576
0 0.00140616 0.00256446
0.00637614 0.00821149 0.00642293
0.00579439 0.00141779 3.21453e-06
0.0060217 0.00353596 0.00160618
0.00316032 0.00999502 0.00582573
0.00856971 0.00997071 0.00583655
0.00255335 0.00140173 7.61488e-07
0.00594427 -1.90591e-05 0.00149762
0.00628593 0.00827161 0.00361959
0.00851219 -3.25236e-05 0.00583725
0.00617911 0.00165479 0.0063673
0.0014009 0.00256397 0.0100001
0.00711891 0.00716136 3.81446e-06
0.0051704 0.00767889 0.00217084
0.00594026 0.00607962 0.00160463
0 0.00686719 0.00578184
0.00996351 0.00136573 0.00257057
0.00177139 0.00360962 0.00640804
0.0100052 0.00844961 0.00262916
0.00840536 0.00616168 0.00413669
0.00599293 0.00998355 0.00149636
0.0069304 -2.38663e-05 0.00692889
0.00996147 0.00139555 0.00582462
0.00837413 0.00354477 0.00606452
0.00150009 -1.02039e-06 0.00581529
0 0.0013659 0.00748679
0.00136194 -9.06156e-07 0.00752894
0.00999335 0.00683054 0.00578638
0.00582408 0.00847673 2.76897e-06
0 0.0075208 0.00859127
0.00136475 0.00748628 0.00999999
0.00423475 0.00819802 0.00362917
0.00860139 0.00997049 0.00751522
0.0100026 0.00859356 0.00753039
0.00574494 0.00157044 0.0100013
0.0072381 0.00416683 0.010002
0 0.0057735 0.00666667
0.00137108 0.00999953 0.007529
0 0.00863025 0.00752641
0.00854632 -3.33651e-05 0.00251246
0.0099961 0.0069166 0.00263449
0.00845484 0.00631404 0.00216731
0.00849518 0.0057961 0.0100027
0.00745331 0.00134867 0.0100021
0.00854373 -3.29283e-05 0.00751525
0.00995987 0.00132598 0.00749112
0 0.00143551 0.00581971
0.00594058 -1.85863e-05 0.00850744
0.00418756 -1.1165e-05 0.00340125
0.00792148 0.0046821 0.0020386
0.00998042 0.00426001 0.00254475
0.00423556 0.00999122 0.0066672
0.00284067 0.00999625 0.00283235
0.00130583 -8.23814e-07 0.00241842
0 0.00727418 0.00419576
0.00998621 0.00573677 0.00667101
0.0069869 0.00997876 0.00308432
0.00750885 0.00861415 0.010002
0 0.00574334 0.00336387
0 0.0043297 0.00416652
0.00685767 0.00576577 0.0100019
0.00996986 0.00298388 0.00691973
0.00419858 -1.09848e-05 0.00666756
0.00248204 0.00999682 0.0086118
0.00745669 0.00133945 4.6045e-06
0.00576782 0.00665364 0.0100011
0.00999535 0.00748434 0.00859499
0.00860381 0.00752536 0.0100026
0.00689504 0.00300074 4.19035e-06
0.00336178 0.00573944 1.28122e-06
0.00753632 0.0086068 4.04858e-06
0.00753061 0.00997553 0.00139097
0.00578316 0.00685347 2.8368e-06
0.00697147 0.00635152 0.00303637
0.00747601 -2.76238e-05 0.00139219
0.00287801 0.00499633 0.0100004
0.00432221 0.00582673 0.0100007
0.00431663 0.00415939 0.0100008
0.00752575 0.00997626 0.00861832
0.00246014 -4.40116e-06 0.00861197
0.0099883 0.00570619 0.00336931
0 0.00302218 0.00691532
0.0099746 0.00398035 0.00850613
0.0084848 0.00398798 5.33619e-06
0.00997185 0.00266984 0.00154791
0 0.00244495 0.00857025
0.00244572 0.0085673 0.0100001
0.0074715 -2.71246e-05 0.00861796
0.00845484 0.00259415 0.0100026
0.0088272 0.00416333 0.0100029
0.00568085 0.00998535 0.0058346
0.00518746 0.00757256 0.0050336
0.00565419 0.00998528 0.00421671
0.00698289 0.0099792 0.0069285
0.00301924 0.00691267 0.0100002
0.00415925 0.00432266 2.01372e-06
0.00281729 -5.78993e-06 0.00440528
0.00313245 -6.49329e-06 0.00582616
0.00998082 0.0041571 0.00113139
0.00364221 0.00833146 0.00158946
0.00997948 0.00429202 0.0041719
0.00666169 0.00575535 3.77347e-06
0.00860431 0.00997004 0.00251115
0 0.00848692 0.00262374
0.00135316 0.00999953 0.00405992
0 0.00885053 0.00419359
0.0042017 0.00884184 1.77172e-06
0.00421571 0.0099909 0.00168906
0.00499073 0.00478163 0.00238077
0.00720698 0.00449976 4.31955e-06
0.00560878 -1.75267e-05 0.00421769
0.00563548 -1.74788e-05 0.00583509
0.00131495 0.00999955 0.00241807
0.00854373 0.00241365 5.48642e-06
0.00997845 0.00448453 0.00722384
0.00712774 0.00997831 0.00500257
0.0057226 0.00334988 0.0100014
0.00244292 -4.40561e-06 0.00135725
0.00996532 0.00240604 0.00857434
0.00239143 0.00478924 0.00500027
0.00582194 0.00431549 3.37034e-06
0.00831077 0.00578053 4.9701e-06
0.00548893 0.00998645 0.00722171
0.00997824 0.00429266 0.0058381
0.00541518 0.00998618 0.00277719
0.00707453 -2.46346e-05 0.00500344
0.0028426 0.00999628 0.00440469
0 0.00452174 0.00721958
0.00451849 0.00721223 0.0100006
0.00544441 -1.63472e-05 0.00722154
0.0035981 0.00506917 0.00359724
0.00426137 0.00999109 0.00500888
0.00422337 -1.1204e-05 0.00500961
0.00366534 0.00521216 0.00617523
0 0.005744 0.00499998
0 0.00433013 0.00583333
0.00499657 0.00573447 2.64782e-06
0.0049823 0.0063296 0.00355528
0.00537048 -1.6501e-05 0.00277841
0.00998717 0.0057071 0.00500489
0.00368854 0.00640312 0.0048445
0.00573084 0.00498746 0.0100013
0.00998978 0.0057369 0.00159295
0 0.00666667 0
0.00859434 0.00749182 4.89582e-06
0.0033138 -8.664e-06 2.13382e-06
0 0.01 0.00666667
0.00500783 0.00998799 0.0100011
0 0.00288419 0.00499914
0.0100002 0.00745216 0.00138024
0.00999629 0.0066293 6.15977e-06
0 0.005 0.01
0.00498328 0.00287225 2.5095e-06
0 0.005 0
0.0099547 -4.15447e-05 0.00333937
0.0100112 0.00996224 0.0066707
0.0041982 0.00726702 1.84796e-06
0.00997029 0.00284566 0.00500433
0.00497221 -1.55612e-05 3.24098e-06
0 0 0.00666667
0.00378844 0.00361108 0.00522703
0.00496778 -1.48392e-05 0.0100006
0.00995243 -4.11709e-05 0.00667124
0 0 0.005
0.00879636 0.00996873 0.00122467
0.010008 0.00874222 0.00122581
0.00995352 -4.12699e-05 0.00500533
0.00998639 0.00496198 6.39944e-06
0.00121521 0.00121894 3.62152e-08
0 0.00122008 0.00122008
0 0.00333333 0.01
0 0.00666667 0.01
0.00879014 0.00874926 4.8403e-06
0.0100136 0.00996184 0.00333824
0.00422533 0.00999101 0.00340039
0.00998928 0.00663034 0.0100038
0 0.00333333 0
0 0.00122008 0.00877992
0.0012132 -1.16798e-06 0.00877971
0.00121471 0.00121932 0.0100002
0.0087909 0.00996931 0.00878308
0.00121991 0.00877926 0.00999996
0 0.00877992 0.00877992
0.0100027 0.00874306 0.00878369
0.00668337 0.00997981 2.96135e-06
0.00996326 0.00117918 0.00122661
0.00122149 0.00999928 0.00878034
0.00878327 0.00875 0.0100029
0.00997936 0.00496309 0.0100038
0 0 0.00333333
0.00663164 -2.33915e-05 4.63147e-06
0.00873808 -3.48446e-05 0.00122605
0.00120499 -1.13196e-06 0.00121238
0 0.00877992 0.00122008
0.00122129 0.0087793 1.87134e-07
0.00121376 0.00999933 0.00121147
0.00995802 0.00117991 0.00878377
0.00873911 0.00118688 0.0100027
0.00662615 -2.26449e-05 0.0100011
0.0087459 0.0011861 5.80497e-06
0.008733 -3.42086e-05 0.0087826
0.00997665 0.00329434 6.56859e-06
0.00333905 0.00999361 0.0100009
0.00246581 0.00999699 0.00135677
0.00667694 0.00998052 0.010002
0.00996953 0.00329555 0.0100038
0 0.01 0.005
0.00262788 0.00848386 7.9171e-07
0.0100124 0.00996204 0.00500451
0 0.01 0.00333333
0 0.00166667 0
0.00995587 -4.18995e-05 0.00167333
0 0.00166667 0.01
0 0.00833333 0
0.0100062 0.00829569 5.83318e-06
0.0099513 -4.13163e-05 0.00833712
0.0100148 0.00996157 0.00167214
0.01001 0.00996226 0.00833726
0.0016696 0.00999793 0.0100003
0 0.01 0.00833333
0.00835079 0.00997099 4.34156e-06
0.00829351 -3.27319e-05 5.76247e-06
0.00828701 -3.20326e-05 0.0100022
0.00834368 0.00997149 0.0100028
0 0 0.00833333
0.00999927 0.00829661 0.0100037
0.00165636 -2.93994e-06 5.96167e-07
0 0 0.00166667
0.00334404 0.00999399 1.09063e-06
0.00995976 0.00162674 0.0100037
0.00996676 0.00162596 6.69841e-06
0.00165589 -2.46465e-06 0.0100003
0.00167143 0.00999838 3.49331e-07
0 0.01 0.00166667
0.0100091 0.00996218 0.0100039
0 0 0.01
0.010016 0.00996142 5.50169e-06
0.00995008 -4.14136e-05 0.0100033
0 0.01 0.01
0.00995696 -4.22671e-05 7.04231e-06
0 0.01 0
0 0 0
0.00501419 0.00998736 1.95548e-06
0.00331088 -7.70782e-06 0.0100001
0 0.00833333 0.01

CELLS 343 686
1 0
1 1
1 2
1 3
1 4
1 5
1 6
1 7
1 8
1 9
1 10
1 11
1 12
1 13
1 14
1 15
1 16
1 17
1 18
1 19
1 20
1 21
1 22
1 23
1 24
1 25
1 26
1 27
1 28
1 29
1 30
1 31
1 32
1 33
1 34
1 35
1 36
1 37
1 38
1 39
1 40
1 41
1 42
1 43
1 44
1 45
1 46
1 47
1 48
1 49
1 50
1 51
1 52
1 53
1 54
1 55
1 56
1 57
1 58
1 59
1 60
1 61
1 62
1 63
1 64
1 65
1 66
1 67
1 68
1 69
1 70
1 71
1 72
1 73
1 74
1 75
1 76
1 77
1 78
1 79
1 80
1 81
1 82
1 83
1 84
1 85
1 86
1 87
1 88
1 89
1 90
1 91
1 92
1 93
1 94
1 95
1 96
1 97
1 98
1 99
1 100
1 101
1 102
1 103
1 104
1 105
1 106
1 107
1 108
1 109
1 110
1 111
1 112
1 113
1 114
1 115
1 116
1 117
1 118
1 119
1 120
1 121
1 122
1 123
1 124
1 125
1 126
1 127
1 128
1 129
1 130
1 131
1 132
1 133
1 134
1 135
1 136
1 137
1 138
1 139
1 140
1 141
1 142
1 143
1 144
1 145
1 146
1 147
1 148
1 149
1 150
1 151
1 152
1 153
1 154
1 155
1 156
1 157
1 158
1 159
1 160
1 161
1 162
1 163
1 164
1 165
1 166
1 167
1 168
1 169
1 170
1 171
1 172
1 173
1 174
1 175
1 176
1 177
1 178
1 179
1 180
1 181
1 182
1 183
1 184
1 185
1 186
1 187
1 188
1 189
1 190
1 191
1 192
1 193
1 194
1 195
1 196
1 197
1 198
1 199
1 200
1 201
1 202
1 203
1 204
1 205
1 206
1 207
1 208
1 209
1 210
1 211
1 212
1 213
1 214
1 215
1 216
1 217
1 218
1 219
1 220
1 221
1 222
1 223
1 224
1 225
1 226
1 227
1 228
1 229
1 230
1 231
1 232
1 233
1 234
1 235
1 236
1 237
1 238
1 239
1 240
1 241
1 242
1 243
1 244
1 245
1 246
1 247
1 248
1 249
1 250
1 251
1 252
1 253
1 254
1 255
1 256
1 257
1 258
1 259
1 260
1 261
1 262
1 263
1 264
1 265
1 266
1 267
1 268
1 269
1 270
1 271
1 272
1 273
1 274
1 275
1 276
1 277
1 278
1 279
1 280
1 281
1 282
1 283
1 284
1 285
1 286
1 287
1 288
1 289
1 290
1 291
1 292
1 293
1 294
1 295
1 296
1 297
1 298
1 299
1 300
1 301
1 302
1 303
1 304
1 305
1 306
1 307
1 308
1 309
1 310
1 311
1 312
1 313
1 314
1 315
1 316
1 317
1 318
1 319
1 320
1 321
1 322
1 323
1 324
1 325
1 326
1 327
1 328
1 329
1 330
1 331
1 332
1 333
1 334
1 335
1 336
1 337
1 338
1 339
1 340
1 341
1 342

CELL_TYPES 343
1
1
1
1
1
1
1
1
1
1
1
1
1
1
1
1
1
1
1
1
1
1
1
1
1
1
1
1
1
1
1
1
1
1
1
1
1
1
1
1
1
1
1
1
1
1
1
1
1
1
1
1
1
1
1
1
1
1
1
1
1
1
1
1
1
1
1
1
1
1
1
1
1
1
1
1
1
1
1
1
1
1
1
1
1
1
1
1
1
1
1
1
1
1
1
1
1
1
1
1
1
1
1
1
1
1
1
1
1
1
1
1
1
1
1
1
1
1
1
1
1
1
1
1
1
1
1
1
1
1
1
1
1
1
1
1
1
1
1
1
1
1
1
1
1
1
1
1
1
1
1
1
1
1
1
1
1
1
1
1
1
1
1
1
1
1
1
1
1
1
1
1
1
1
1
1
1
1
1
1
1
1
1
1
1
1
1
1
1
1
1
1
1
1
1
1
1
1
1
1
1
1
1
1
1
1
1
1
1
1
1
1
1
1
1
1
1
1
1
1
1
1
1
1
1
1
1
1
1
1
1
1
1
1
1
1
1
1
1
1
1
1
1
1
1
1
1
1
1
1
1
1
1
1
1
1
1
1
1
1
1
1
1
1
1
1
1
1
1
1
1
1
1
1
1
1
1
1
1
1
1
1
1
1
1
1
1
1
1
1
1
1
1
1
1
1
1
1
1
1
1
1
1
1
1
1
1
1
1
1
1
1
1
1
1
1
1
1
1
1
1
1
1
1
1
1
1
1
1
1
1
1
1
1
1
1
1
1
1
1
1
1
1

POINT_DATA 343
FIELD FieldData 3

ExternalForceID_(#) 1 343 int
0
1
2
3
4
5
6
7
8
9
10
11
12
13
14
15
16
17
18
19
20
21
22
23
24
25
26
27
28
29
30
31
32
33
34
35
36
37
38
39
40
41
42
43
44
45
46
47
48
49
50
51
52
53
54
55
56
57
58
59
60
61
62
63
64
65
66
67
68
69
70
71
72
73
74
75
76
77
78
79
80
81
82
83
84
85
86
87
88
89
90
91
92
93
94
95
96
97
98
99
100
101
102
103
104
105
106
107
108
109
110
111
112
113
114
115
116
117
118
119
120
121
122
123
124
125
126
127
128
129
130
131
132
133
134
135
136
137
138
139
140
141
142
143
144
145
146
147
148
149
150
151
152
153
154
155
156
157
158
159
160
161
162
163
164
165
166
167
168
169
170
171
172
173
174
175
176
177
178
179
180
181
182
183
184
185
186
187
188
189
190
191
192
193
194
195
196
197
198
199
200
201
202
203
204
205
206
207
208
209
210
211
212
213
214
215
216
217
218
219
220
221
222
223
224
225
226
227
228
229
230
231
232
233
234
235
236
237
238
239
240
241
242
243
244
245
246
247
248
249
250
251
252
253
254
255
256
257
258
259
260
261
262
263
264
265
266
267
268
269
270
271
272
273
274
275
276
277
278
279
280
281
282
283
284
285
286
287
288
289
290
291
292
293
294
295
296
297
298
299
300
301
302
303
304
305
306
307
308
309
310
311
312
313
314
315
316
317
318
319
320
321
322
323
324
325
326
327
328
329
330
331
332
333
334
335
336
337
338
339
340
341
342

ExternalForceType_(0/1/2/3/4) 1 343 int
0
0
0
0
0
0
0
0
0
0
0
0
0
0
0
0
0
0
0
0
0
0
0
0
0
0
0
0
0
0
0
0
0
0
0
0
0
0
0
0
0
0
0
0
0
0
0
0
0
0
0
0
0
0
0
0
0
0
0
0
0
0
0
0
0
0
0
0
0
0
0
0
0
0
0
0
0
0
0
0
0
0
0
0
0
0
0
0
0
0
0
0
0
0
0
0
0
0
0
0
0
0
0
0
0
0
0
0
0
0
0
0
0
0
0
0
0
0
0
0
0
0
0
0
0
0
0
0
0
0
0
0
0
0
0
0
0
0
0
0
0
0
0
0
0
0
0
0
0
0
0
0
0
0
0
0
0
0
0
0
0
0
0
0
0
0
0
0
0
0
0
0
0
0
0
0
0
0
0
0
0
0
0
0
0
0
0
0
0
0
0
0
0
0
0
0
0
0
0
0
0
0
0
0
0
0
0
0
0
0
0
0
0
0
0
0
0
0
0
0
0
0
0
0
0
0
0
0
0
0
0
0
0
0
0
0
0
0
0
0
0
0
0
0
0
0
0
0
0
0
0
0
0
0
0
0
0
0
0
0
0
0
0
0
0
0
0
0
0
0
0
0
0
0
0
0
0
0
0
0
0
0
0
0
0
0
0
0
0
0
0
0
0
0
0
0
0
0
0
0
0
0
0
0
0
0
0
0
0
0
0
0
0
0
0
0
0
0
0
0
0
0
0
0
0
0
0
0
0
0
0
0
0
0
0
0
0
0
0
0
0
0
0

ExternalForce_(N) 3 343 double
0 -3.09568e-05 0
0 -0.000138619 0
0 -2.16714e-05 0
0 -0.000168226 0
0 -8.26002e-05 0
0 -8.9203e-05 0
0 -9.74165e-05 0
0 -7.37906e-05 0
0 -6.68156e-05 0
0 -5.47617e-05 0
0 -3.04981e-05 0
0 -0.000105531 0
0 -4.77758e-05 0
0 -0.000161821 0
0 -2.96713e-05 0
0 -7.9067e-05 0
0 -6.57564e-05 0
0 -0.000106704 0
0 -4.11017e-05 0
0 -8.006e-05 0
0 -6.02474e-05 0
0 -0.000115662 0
0 -2.18875e-05 0
0 -4.17098e-05 0
0 -0.000107827 0
0 -7.27379e-05 0
0 -4.13856e-05 0
0 -3.85027e-05 0
0 -3.029e-05 0
0 -0.000128774 0
0 -7.57947e-05 0
0 -0.000162261 0
0 -0.000116775 0
0 -7.15802e-05 0
0 -3.74431e-05 0
0 -0.000108892 0
0 -3.74072e-05 0
0 -0.000136493 0
0 -6.25303e-05 0
0 -7.85756e-05 0
0 -7.52544e-05 0
0 -0.000116589 0
0 -0.000160874 0
0 -2.73339e-05 0
0 -8.7662e-05 0
0 -2.53184e-05 0
0 -7.42972e-05 0
0 -4.15199e-05 0
0 -0.000128792 0
0 -3.72945e-05 0
0 -2.72189e-05 0
0 -7.03157e-05 0
0 -0.000119003 0
0 -5.02041e-05 0
0 -8.04153e-05 0
0 -4.4939e-05 0
0 -2.74192e-05 0
0 -3.19929e-05 0
0 -4.04607e-05 0
0 -2.07889e-05 0
0 -3.28809e-05 0
0 -3.54797e-05 0
0 -0.000153858 0
0 -7.19739e-05 0
0 -8.09026e-05 0
0 -4.90862e-05 0
0 -2.77255e-05 0
0 -7.06591e-05 0
0 -3.20606e-05 0
0 -4.10794e-05 0
0 -1.98932e-05 0
0 -2.37551e-05 0
0 -3.0591e-05 0
0 -5.86107e-05 0
0 -5.75946e-05 0
0 -4.01595e-05 0
0 -5.35099e-05 0
0 -2.24477e-05 0
0 -4.41213e-05 0
0 -4.29866e-05 0
0 -4.42325e-05 0
0 -4.30889e-05 0
0 -4.19155e-05 0
0 -5.21923e-05 0
0 -1.5029e-05 0
0 -2.34331e-05 0
0 -1.9903e-05 0
0 -4.30461e-05 0
0 -3.11931e-05 0
0 -3.08326e-05 0
0 -4.52797e-05 0
0 -5.7648e-05 0
0 -8.02544e-05 0
0 -2.43623e-05 0
0 -0.000150893 0
0 -3.43039e-05 0
0 -7.21258e-05 0
0 -1.97489e-05 0
0 -2.00202e-05 0
0 -7.83017e-05 0
0 -4.32908e-05 0
0 -7.00326e-05 0
0 -1.17841e-05 0
0 -4.93779e-05 0
0 -1.58193e-05 0
0 -4.04762e-05 0
0 -8.57147e-05 0
0 -4.2953e-05 0
0 -7.82027e-05 0
0 -2.09499e-05 0
0 -3.31713e-05 0
0 -9.30599e-05 0
0 -7.26197e-05 0
0 -1.76801e-05 0
0 -2.06228e-05 0
0 -7.8371e-05 0
0 -1.84411e-05 0
0 -7.30662e-05 0
0 -4.11806e-05 0
0 -2.3265e-05 0
0 -4.23503e-05 0
0 -5.94919e-05 0
0 -4.22718e-05 0
0 -2.12723e-05 0
0 -1.86252e-05 0
0 -1.77849e-05 0
0 -3.82356e-05 0
0 -2.39658e-05 0
0 -1.62481e-05 0
0 -7.86148e-05 0
0 -1.61387e-05 0
0 -2.34763e-05 0
0 -2.95637e-05 0
0 -2.93742e-05 0
0 -1.33947e-05 0
0 -1.83735e-05 0
0 -2.05639e-05 0
0 -1.91062e-05 0
0 -1.84053e-05 0
0 -6.25793e-05 0
0 -4.49914e-05 0
0 -1.98914e-05 0
0 -1.58922e-05 0
0 -2.367e-05 0
0 -3.81266e-05 0
0 -4.36518e-05 0
0 -2.25472e-05 0
0 -0.000115119 0
0 -3.05886e-05 0
0 -1.32828e-05 0
0 -3.38507e-05 0
0 -1.78391e-05 0
0 -2.88237e-05 0
0 -1.34771e-05 0
0 -2.36876e-05 0
0 -2.06453e-05 0
0 -2.58912e-05 0
0 -2.10097e-05 0
0 -1.7602e-05 0
0 -3.13896e-05 0
0 -1.34386e-05 0
0 -2.38863e-05 0
0 -2.04203e-05 0
0 -1.33426e-05 0
0 -2.13076e-05 0
0 -1.86316e-05 0
0 -3.10974e-05 0
0 -2.56228e-05 0
0 -2.33161e-05 0
0 -1.57181e-05 0
0 -1.87061e-05 0
0 -5.38771e-05 0
0 -1.84308e-05 0
0 -3.08341e-05 0
0 -2.91652e-05 0
0 -1.16203e-05 0
0 -1.85667e-05 0
0 -2.00287e-05 0
0 -2.68375e-05 0
0 -2.37799e-05 0
0 -3.16945e-05 0
0 -3.13676e-05 0
0 -3.15313e-05 0
0 -1.90796e-05 0
0 -1.58134e-05 0
0 -1.83326e-05 0
0 -3.16308e-05 0
0 -2.07128e-05 0
0 -2.91276e-05 0
0 -6.03597e-05 0
0 -2.26581e-05 0
0 -2.35174e-05 0
0 -2.33506e-05 0
0 -2.59482e-05 0
0 -1.63393e-05 0
0 -1.78912e-05 0
0 -2.02658e-05 0
0 -5.62379e-05 0
0 -2.04507e-05 0
0 -2.14176e-05 0
0 -2.38895e-05 0
0 -3.05955e-05 0
0 -3.11287e-05 0
0 -2.01544e-05 0
0 -1.92198e-05 0
0 -2.99909e-05 0
0 -6.32085e-05 0
0 -2.04829e-05 0
0 -2.67435e-05 0
0 -2.11611e-05 0
0 -1.83262e-05 0
0 -1.96474e-05 0
0 -2.0699e-05 0
0 -2.83503e-05 0
0 -2.27807e-05 0
0 -2.35234e-05 0
0 -1.93874e-05 0
0 -6.29086e-05 0
0 -2.12117e-05 0
0 -3.22943e-05 0
0 -2.06229e-05 0
0 -2.61501e-05 0
0 -1.90721e-05 0
0 -2.86319e-05 0
0 -2.53212e-05 0
0 -2.07681e-05 0
0 -2.05553e-05 0
0 -1.88077e-05 0
0 -6.92631e-05 0
0 -2.20924e-05 0
0 -2.02457e-05 0
0 -6.16224e-05 0
0 -2.08117e-05 0
0 -2.85397e-05 0
0 -2.08875e-05 0
0 -6.32617e-05 0
0 -1.39008e-05 0
0 -2.0289e-05 0
0 -6.45558e-05 0
0 -2.47785e-05 0
0 -2.35177e-05 0
0 -7.28089e-06 0
0 -2.18143e-05 0
0 -6.93323e-06 0
0 -6.87344e-06 0
0 -8.76768e-06 0
0 -2.48719e-05 0
0 -2.22231e-05 0
0 -1.31068e-05 0
0 -7.69816e-06 0
0 -2.27889e-05 0
0 -5.95166e-06 0
0 -6.55579e-06 0
0 -6.71305e-06 0
0 -2.46468e-05 0
0 -2.27228e-05 0
0 -7.6878e-06 0
0 -6.67903e-06 0
0 -6.10861e-05 0
0 -6.6189e-06 0
0 -6.52665e-06 0
0 -6.87836e-06 0
0 -1.78856e-05 0
0 -1.87072e-05 0
0 -6.73674e-06 0
0 -6.91401e-06 0
0 -1.82903e-05 0
0 -2.2423e-05 0
0 -6.67521e-06 0
0 -7.02401e-06 0
0 -1.78908e-05 0
0 -5.89658e-06 0
0 -1.98938e-05 0
0 -7.3162e-06 0
0 -5.63509e-06 0
0 -1.76631e-05 0
0 -1.42638e-05 0
0 -2.22707e-05 0
0 -1.77204e-05 0
0 -2.11264e-05 0
0 -1.75686e-05 0
0 -1.76047e-05 0
0 -6.69346e-06 0
0 -2.20467e-05 0
0 -1.42479e-05 0
0 -1.76144e-05 0
0 -6.84615e-06 0
0 -6.12404e-06 0
0 -6.50125e-06 0
0 -1.41879e-05 0
0 -1.37476e-05 0
0 -2.11168e-05 0
0 -1.79377e-05 0
0 -1.37282e-05 0
0 -1.41198e-05 0
0 -2.15061e-05 0
0 -6.84475e-06 0
0 -1.74349e-05 0
0 -1.75758e-05 0
0 -6.41828e-06 0
0 -7.20025e-06 0
0 -2.30432e-05 0
0 -6.96894e-06 0
0 -6.44499e-06 0
0 -6.14414e-06 0
0 -2.14766e-05 0
0 -6.00855e-06 0
0 -5.92427e-06 0
0 -5.81567e-06 0
0 -5.02303e-06 0
0 -5.01945e-06 0
0 -4.85271e-06 0
0 -4.87573e-06 0
0 -4.8684e-06 0
0 -5.22951e-06 0
0 -4.84801e-06 0
0 -4.88396e-06 0
0 -4.77612e-06 0
0 -4.81304e-06 0
0 -4.85251e-06 0
0 -4.8555e-06 0
0 -4.82575e-06 0
0 -4.80313e-06 0
0 -4.86923e-06 0
0 -4.85781e-06 0
0 -4.73027e-06 0
0 -1.08748e-05 0
0 -5.22863e-06 0
0 -5.34413e-06 0
0 -5.26459e-06 0
0 -5.05624e-06 0
0 -4.92238e-06 0
0 -5.43253e-06 0
0 -5.43253e-06 0
0 -5.43253e-06 0
0 -5.43253e-06 0
0 -5.43253e-06 0
0 -5.43253e-06 0
0 -5.40321e-06 0
0 -5.40321e-06 0
0 -7.3113e-06 0
0 -6.98147e-06 0
0 -4.8949e-06 0

