# vtk DataFile Version 4.2
vtk output
ASCII
DATASET UNSTRUCTURED_GRID

POINTS 343 double
0.00112288 0.00419488 1.0006e-07
0.0021717 0.00498238 0.0021755
0 0.00419538 0.00112517
0.00193027 0.00195434 0.00194226
0.00516867 0.00240589 0.00503335
0.00517108 0.00382912 0.00639876
0.00762255 0.00477349 0.00500154
0.00622545 0.0048491 0.00369347
0.00683435 0.00328696 0.00691618
0.00499113 0.00499169 0.00500086
0.00417733 0.00111739 0.0100002
0.00527848 0.00207919 0.00790551
0.00418764 -8.18507e-06 0.00831815
0.00201166 0.00200237 0.0080334
0.00428342 0.00253217 0.0100003
0.00695589 0.00644515 0.00694918
0.00641416 0.00618102 0.00518487
0.00226031 0.00218447 0.0051463
0 0.00143586 0.00417514
0.00159464 0.0034661 0.00403709
0.00683773 0.0031923 0.00316355
0.00774426 0.00221093 0.00506663
0 0.00270918 0.00154168
0.00415943 0.00142779 1.02598e-06
0.00500837 0.00218684 0.00219925
0.00396356 0.00352614 0.00160396
0.00134513 -6.13803e-07 0.0040601
0.00418345 -8.43299e-06 0.00168918
0.002628 0.00695145 4.52041e-07
0.00193915 0.00805268 0.00194504
0.00408943 0.00624758 0.00164598
0.00800213 0.00798373 0.00800025
0.00796263 0.00481341 0.00802524
0.00838813 0.00607718 0.00595102
0.0100013 0.00882221 0.00419594
0.00757816 0.00763363 0.00496617
0.00856979 0.00997748 0.00416959
0.00798001 0.00796888 0.0020187
0.00353514 0.0030361 0.00696007
0.00443566 0.00366122 0.00832509
0.00389126 0.00159994 0.00596962
0.00500519 0.00766735 0.00767794
0.00198957 0.00800775 0.00798977
0.00282808 0.00999704 0.00712745
0.00391736 0.00839893 0.00595843
0 0.00695361 0.00262895
0.00164679 0.00623917 0.00408798
0 0.0040177 0.00850214
0.00231473 0.00498557 0.00766171
0.00143282 0.00417441 0.01
0.00717268 0.00711622 0.0100004
0.00611663 0.0059694 0.00841922
0.00205233 0.00794135 0.00474198
0.00304388 0.00694263 0.00646805
0.00158695 0.00607828 0.00592611
0.009987 0.00578035 0.00831883
0 0.00718191 0.00711644
0.00158533 0.00577336 1.16975e-07
0 0.00577432 0.00158701
0.00999326 0.00715409 0.00711822
0.00286576 0.00334899 0.0100002
0.00996911 0.00140561 0.00417805
0.00803711 0.00194054 0.00198168
0.00838941 0.00349959 0.00400117
0.00372532 0.00164746 0.00412886
0.00150975 0.00999967 0.00581508
0.00280831 -3.90997e-06 0.00712803
0.00610758 0.00417009 0.00837769
0.00999441 0.00724615 0.00419825
0.00852701 -2.47029e-05 0.00417044
0.00334303 0.0028693 6.63638e-07
0.00269831 0.00153854 0.0100002
0.00281798 -4.26276e-06 0.00283234
0.00479683 0.0051933 0.00755534
0.00315838 0.00314595 0.00316774
0 0.00849157 0.00581511
0.00486505 0.00366868 0.00378719
0.00153748 0.00270861 9.35216e-08
0.00579823 0.00831464 0.0100001
0.00598484 0.00998798 0.00850673
0.00421419 0.00999342 0.00831825
0.00401687 0.00849763 0.00999983
0.00999925 0.00846352 0.0058171
0.00314835 0.00683327 0.00315126
0 0.00748929 0.00137438
0.00137415 0.00748899 3.78983e-08
0 0.00287343 0.00335182
0 0.00580816 0.00831736
0 0.00429792 0.00253898
0.00253483 0.00429571 4.48515e-07
0.00143346 0.00581913 0.01
0.00517532 0.00646766 0.00640121
0.00360264 0.006509 0.00823448
0.00692855 0.00261119 0.0100005
0.00799622 0.00193739 0.00803691
0.00694135 -1.82868e-05 0.00308389
0.00600048 0.00165106 0.00361424
0.00997548 0.00284408 0.00335491
0 0.00140616 0.00256446
0.00637381 0.00821521 0.00642202
0.00579808 0.00142198 1.96031e-06
0.00602347 0.00353965 0.00160491
0.00315809 0.0099961 0.00582554
0.00856396 0.00997765 0.00583477
0.00255474 0.00140272 4.97468e-07
0.00595025 -1.44927e-05 0.00149625
0.0062825 0.00827528 0.00361857
0.00852131 -2.45264e-05 0.00583532
0.00618476 0.0016591 0.00636637
0.00140174 0.00256404 0.0100001
0.0071151 0.007166 2.11807e-06
0.00516762 0.00768131 0.00217002
0.00593873 0.00608261 0.00160343
0 0.00686719 0.00578184
0.00996938 0.00137571 0.00256783
0.00177204 0.0036098 0.00640797
0.0100002 0.00845853 0.00262654
0.00840451 0.00616811 0.00413485
0.00598684 0.00998729 0.00149525
0.00693898 -1.8062e-05 0.0069277
0.0099687 0.00140541 0.00582207
0.00837806 0.00355154 0.00606268
0.00150148 -8.09893e-07 0.00581526
0 0.0013659 0.00748679
0.00136322 -7.06894e-07 0.00752893
0.00999222 0.00683931 0.00578391
0.00581928 0.00847999 1.54103e-06
0 0.0075208 0.00859127
0.00136484 0.00748636 0.00999996
0.00423259 0.00819966 0.00362883
0.00859634 0.0099775 0.00751337
0.00999949 0.00860233 0.00752794
0.00575143 0.00157433 0.0100003
0.00724224 0.00417169 0.0100006
0 0.0057735 0.00666667
0.00137049 0.00999961 0.00752896
0 0.00863025 0.00752641
0.00855409 -2.51378e-05 0.00251024
0.00999344 0.00692544 0.00263186
0.00845289 0.00632059 0.00216532
0.00849728 0.00580259 0.0100007
0.00746132 0.00135486 0.0100006
0.0085536 -2.47987e-05 0.00751343
0.00996794 0.00133586 0.0074886
0 0.00143551 0.00581971
0.00594873 -1.41127e-05 0.00850652
0.00419261 -8.52738e-06 0.00340072
0.00792193 0.0046881 0.00203678
0.00998184 0.0042692 0.0025421
0.00423249 0.00999316 0.00666688
0.00283817 0.00999706 0.00283222
0.00130696 -6.59619e-07 0.00241836
0 0.00727418 0.00419576
0.00998718 0.00574561 0.00666854
0.00698071 0.00998368 0.00308305
0.00750694 0.00861943 0.0100005
0 0.00574334 0.00336387
0 0.0043297 0.00416652
0.00685949 0.00576988 0.0100005
0.00997516 0.00299322 0.00691723
0.00420424 -8.37126e-06 0.00666717
0.00248055 0.00999749 0.00861167
0.00746105 0.00134582 2.70455e-06
0.00576848 0.00665648 0.0100002
0.00999441 0.00749307 0.00859255
0.00860334 0.00753195 0.0100007
0.0068971 0.00300575 2.48557e-06
0.0033608 0.00574014 8.02731e-07
0.00753044 0.00861217 2.19339e-06
0.00752349 0.00998124 0.00138929
0.00578025 0.00685644 1.60499e-06
0.00696989 0.00635584 0.00303502
0.00748281 -2.08647e-05 0.00139029
0.0028791 0.00499685 0.0100001
0.00432363 0.00582806 0.0100001
0.00431921 0.00416087 0.0100002
0.00752151 0.00998183 0.00861677
0.00246351 -3.35207e-06 0.00861182
0.00998786 0.00571514 0.00336672
0 0.00302218 0.00691532
0.00997905 0.0039894 0.00850362
0.00848551 0.00399505 3.03734e-06
0.00997527 0.00267946 0.00154517
0 0.00244495 0.00857025
0.00244537 0.00856792 0.00999988
0.00748104 -2.0465e-05 0.00861655
0.00846177 0.00260126 0.0100007
0.00883187 0.00417058 0.0100008
0.00567677 0.00998868 0.00583394
0.0051858 0.00757493 0.00503304
0.00564953 0.00998862 0.00421601
0.00697825 0.00998403 0.00692739
0.00301964 0.00691312 0.00999994
0.00415909 0.0043241 1.24602e-06
0.00282075 -4.44894e-06 0.00440506
0.00313657 -4.97302e-06 0.0058259
0.0099818 0.00416639 0.00112862
0.00363994 0.00833275 0.00158896
0.00998156 0.00430114 0.00416929
0.00665996 0.00575941 2.18279e-06
0.00859703 0.00997713 0.00250921
0 0.00848692 0.00262374
0.00135253 0.00999962 0.00405993
0 0.00885053 0.00419359
0.004198 0.00884371 1.02601e-06
0.00421143 0.00999293 0.0016885
0.00499107 0.00478368 0.00237999
0.00720696 0.00450483 2.51558e-06
0.00561516 -1.33266e-05 0.00421679
0.00564245 -1.32831e-05 0.00583434
0.00131421 0.00999964 0.00241808
0.00854679 0.00242119 3.15179e-06
0.00998158 0.00449353 0.00722136
0.00712219 0.00998335 0.00500138
0.00572692 0.00335304 0.0100003
0.00244566 -3.40432e-06 0.001357
0.00997223 0.0024156 0.0085718
0.00239183 0.00478963 0.00500015
0.00582217 0.00431875 2.02185e-06
0.00830874 0.00578698 2.76067e-06
0.00548528 0.00998951 0.00722097
0.00998108 0.00430173 0.00583556
0.00541014 0.0099893 0.00277647
0.00708244 -1.86576e-05 0.00500206
0.00284033 0.00999707 0.00440459
0 0.00452174 0.00721958
0.00451862 0.00721387 0.01
0.00545156 -1.24327e-05 0.00722087
0.00359847 0.0050701 0.00359698
0.00425785 0.00999308 0.00500856
0.00422882 -8.536e-06 0.00500916
0.00366602 0.00521308 0.00617497
0 0.005744 0.00499998
0 0.00433013 0.00583333
0.00499516 0.00573643 1.58571e-06
0.00498145 0.00633158 0.00355466
0.0053763 -1.25628e-05 0.00277741
0.00998745 0.00571599 0.00500236
0.00368831 0.00640402 0.00484428
0.0057333 0.00499018 0.0100003
0.00998851 0.00574592 0.00159024
0 0.00666667 0
0.00858971 0.00749859 2.63017e-06
0.00331692 -6.59308e-06 1.42594e-06
0 0.01 0.00666667
0.00500544 0.00999072 0.0100003
0 0.00288419 0.00499914
0.00999615 0.007461 0.00137752
0.00999296 0.00663825 3.27219e-06
0 0.005 0.01
0.00498492 0.00287493 1.52926e-06
0 0.005 0
0.00996311 -3.11477e-05 0.00333663
0.0100057 0.00997136 0.0066683
0.00419581 0.00726847 1.08863e-06
0.009975 0.00285507 0.00500173
0.00497678 -1.18165e-05 2.05659e-06
0 0 0.00666667
0.0037901 0.00361223 0.00522676
0.00497497 -1.12974e-05 0.00999987
0.00996227 -3.08784e-05 0.00666873
0 0 0.005
0.00878849 0.00997613 0.00122251
0.0100019 0.00875123 0.0012231
0.00996266 -3.09538e-05 0.00500271
0.00998566 0.00497115 3.48057e-06
0.00121578 0.00121918 2.14922e-08
0 0.00122008 0.00122008
0 0.00333333 0.01
0 0.00666667 0.01
0.00878361 0.00875644 2.55008e-06
0.0100066 0.00997103 0.00333574
0.00422146 0.00999302 0.00340007
0.00999031 0.00663905 0.0100012
0 0.00333333 0
0 0.00122008 0.00877992
0.00121441 -8.97679e-07 0.00877975
0.0012156 0.00121947 0.0100002
0.00878635 0.00997663 0.00878102
0.00121981 0.00877939 0.00999994
0 0.00877992 0.00877992
0.00999992 0.00875189 0.00878121
0.00667623 0.00998446 1.53618e-06
0.00996888 0.00118931 0.00122378
0.001221 0.00999943 0.00878022
0.00878097 0.00875709 0.0100008
0.00998298 0.00497201 0.0100012
0 0 0.00333333
0.00663751 -1.7684e-05 2.8374e-06
0.00874537 -2.62061e-05 0.00122361
0.001206 -8.84864e-07 0.00121219
0 0.00877992 0.00122008
0.00122064 0.0087794 1.37745e-07
0.00121295 0.00999947 0.00121148
0.00996691 0.00118987 0.00878127
0.00874827 0.00119502 0.0100007
0.00663537 -1.71628e-05 0.00999996
0.00875087 0.00119444 3.35154e-06
0.00874346 -2.57353e-05 0.0087807
0.00997847 0.00330384 3.6382e-06
0.00333746 0.00999507 0.0100003
0.00246342 0.00999764 0.0013566
0.00667349 0.00998507 0.0100006
0.00997572 0.00330474 0.0100012
0 0.01 0.005
0.00262588 0.00848446 4.96314e-07
0.0100061 0.0099712 0.00500207
0 0.01 0.00333333
0 0.00166667 0
0.00996356 -3.14067e-05 0.00167046
0 0.00166667 0.01
0 0.00833333 0
0.0100003 0.00830467 3.03631e-06
0.00996185 -3.09767e-05 0.00833467
0.0100071 0.00997082 0.00166949
0.0100052 0.00997138 0.00833475
0.00166879 0.00999839 0.0100001
0 0.01 0.00833333
0.00834261 0.00997782 2.25098e-06
0.00830013 -2.46202e-05 3.38811e-06
0.00829765 -2.41231e-05 0.0100004
0.00833974 0.0099783 0.0100008
0 0 0.00833333
0.00999768 0.00830542 0.0100011
0.00165802 -2.25531e-06 4.12768e-07
0 0 0.00166667
0.00334019 0.00999531 6.27764e-07
0.00996852 0.00163661 0.0100011
0.00997119 0.00163601 3.75148e-06
0.001658 -1.88868e-06 0.0100002
0.00166979 0.00999872 2.22038e-07
0 0.01 0.00166667
0.0100049 0.00997135 0.0100012
0 0 0.01
0.0100076 0.00997067 2.78475e-06
0.00996137 -3.10752e-05 0.0100008
0 0.01 0.01
0.00996398 -3.16534e-05 4.00403e-06
0 0.01 0
0 0 0
0.0050086 0.00999022 1.05185e-06
0.00331573 -5.91287e-06 0.00999979
0 0.00833333 0.01

CELLS 343 686
1 0
1 1
1 2
1 3
1 4
1 5
1 6
1 7
1 8
1 9
1 10
1 11
1 12
1 13
1 14
1 15
1 16
1 17
1 18
1 19
1 20
1 21
1 22
1 23
1 24
1 25
1 26
1 27
1 28
1 29
1 30
1 31
1 32
1 33
1 34
1 35
1 36
1 37
1 38
1 39
1 40
1 41
1 42
1 43
1 44
1 45
1 46
1 47
1 48
1 49
1 50
1 51
1 52
1 53
1 54
1 55
1 56
1 57
1 58
1 59
1 60
1 61
1 62
1 63
1 64
1 65
1 66
1 67
1 68
1 69
1 70
1 71
1 72
1 73
1 74
1 75
1 76
1 77
1 78
1 79
1 80
1 81
1 82
1 83
1 84
1 85
1 86
1 87
1 88
1 89
1 90
1 91
1 92
1 93
1 94
1 95
1 96
1 97
1 98
1 99
1 100
1 101
1 102
1 103
1 104
1 105
1 106
1 107
1 108
1 109
1 110
1 111
1 112
1 113
1 114
1 115
1 116
1 117
1 118
1 119
1 120
1 121
1 122
1 123
1 124
1 125
1 126
1 127
1 128
1 129
1 130
1 131
1 132
1 133
1 134
1 135
1 136
1 137
1 138
1 139
1 140
1 141
1 142
1 143
1 144
1 145
1 146
1 147
1 148
1 149
1 150
1 151
1 152
1 153
1 154
1 155
1 156
1 157
1 158
1 159
1 160
1 161
1 162
1 163
1 164
1 165
1 166
1 167
1 168
1 169
1 170
1 171
1 172
1 173
1 174
1 175
1 176
1 177
1 178
1 179
1 180
1 181
1 182
1 183
1 184
1 185
1 186
1 187
1 188
1 189
1 190
1 191
1 192
1 193
1 194
1 195
1 196
1 197
1 198
1 199
1 200
1 201
1 202
1 203
1 204
1 205
1 206
1 207
1 208
1 209
1 210
1 211
1 212
1 213
1 214
1 215
1 216
1 217
1 218
1 219
1 220
1 221
1 222
1 223
1 224
1 225
1 226
1 227
1 228
1 229
1 230
1 231
1 232
1 233
1 234
1 235
1 236
1 237
1 238
1 239
1 240
1 241
1 242
1 243
1 244
1 245
1 246
1 247
1 248
1 249
1 250
1 251
1 252
1 253
1 254
1 255
1 256
1 257
1 258
1 259
1 260
1 261
1 262
1 263
1 264
1 265
1 266
1 267
1 268
1 269
1 270
1 271
1 272
1 273
1 274
1 275
1 276
1 277
1 278
1 279
1 280
1 281
1 282
1 283
1 284
1 285
1 286
1 287
1 288
1 289
1 290
1 291
1 292
1 293
1 294
1 295
1 296
1 297
1 298
1 299
1 300
1 301
1 302
1 303
1 304
1 305
1 306
1 307
1 308
1 309
1 310
1 311
1 312
1 313
1 314
1 315
1 316
1 317
1 318
1 319
1 320
1 321
1 322
1 323
1 324
1 325
1 326
1 327
1 328
1 329
1 330
1 331
1 332
1 333
1 334
1 335
1 336
1 337
1 338
1 339
1 340
1 341
1 342

CELL_TYPES 343
1
1
1
1
1
1
1
1
1
1
1
1
1
1
1
1
1
1
1
1
1
1
1
1
1
1
1
1
1
1
1
1
1
1
1
1
1
1
1
1
1
1
1
1
1
1
1
1
1
1
1
1
1
1
1
1
1
1
1
1
1
1
1
1
1
1
1
1
1
1
1
1
1
1
1
1
1
1
1
1
1
1
1
1
1
1
1
1
1
1
1
1
1
1
1
1
1
1
1
1
1
1
1
1
1
1
1
1
1
1
1
1
1
1
1
1
1
1
1
1
1
1
1
1
1
1
1
1
1
1
1
1
1
1
1
1
1
1
1
1
1
1
1
1
1
1
1
1
1
1
1
1
1
1
1
1
1
1
1
1
1
1
1
1
1
1
1
1
1
1
1
1
1
1
1
1
1
1
1
1
1
1
1
1
1
1
1
1
1
1
1
1
1
1
1
1
1
1
1
1
1
1
1
1
1
1
1
1
1
1
1
1
1
1
1
1
1
1
1
1
1
1
1
1
1
1
1
1
1
1
1
1
1
1
1
1
1
1
1
1
1
1
1
1
1
1
1
1
1
1
1
1
1
1
1
1
1
1
1
1
1
1
1
1
1
1
1
1
1
1
1
1
1
1
1
1
1
1
1
1
1
1
1
1
1
1
1
1
1
1
1
1
1
1
1
1
1
1
1
1
1
1
1
1
1
1
1
1
1
1
1
1
1
1
1
1
1
1
1
1
1
1
1
1
1
1
1
1
1
1
1
1
1
1
1
1
1
1
1
1
1
1
1

POINT_DATA 343
FIELD FieldData 3

ExternalForceID_(#) 1 343 int
0
1
2
3
4
5
6
7
8
9
10
11
12
13
14
15
16
17
18
19
20
21
22
23
24
25
26
27
28
29
30
31
32
33
34
35
36
37
38
39
40
41
42
43
44
45
46
47
48
49
50
51
52
53
54
55
56
57
58
59
60
61
62
63
64
65
66
67
68
69
70
71
72
73
74
75
76
77
78
79
80
81
82
83
84
85
86
87
88
89
90
91
92
93
94
95
96
97
98
99
100
101
102
103
104
105
106
107
108
109
110
111
112
113
114
115
116
117
118
119
120
121
122
123
124
125
126
127
128
129
130
131
132
133
134
135
136
137
138
139
140
141
142
143
144
145
146
147
148
149
150
151
152
153
154
155
156
157
158
159
160
161
162
163
164
165
166
167
168
169
170
171
172
173
174
175
176
177
178
179
180
181
182
183
184
185
186
187
188
189
190
191
192
193
194
195
196
197
198
199
200
201
202
203
204
205
206
207
208
209
210
211
212
213
214
215
216
217
218
219
220
221
222
223
224
225
226
227
228
229
230
231
232
233
234
235
236
237
238
239
240
241
242
243
244
245
246
247
248
249
250
251
252
253
254
255
256
257
258
259
260
261
262
263
264
265
266
267
268
269
270
271
272
273
274
275
276
277
278
279
280
281
282
283
284
285
286
287
288
289
290
291
292
293
294
295
296
297
298
299
300
301
302
303
304
305
306
307
308
309
310
311
312
313
314
315
316
317
318
319
320
321
322
323
324
325
326
327
328
329
330
331
332
333
334
335
336
337
338
339
340
341
342

ExternalForceType_(0/1/2/3/4) 1 343 int
0
0
0
0
0
0
0
0
0
0
0
0
0
0
0
0
0
0
0
0
0
0
0
0
0
0
0
0
0
0
0
0
0
0
0
0
0
0
0
0
0
0
0
0
0
0
0
0
0
0
0
0
0
0
0
0
0
0
0
0
0
0
0
0
0
0
0
0
0
0
0
0
0
0
0
0
0
0
0
0
0
0
0
0
0
0
0
0
0
0
0
0
0
0
0
0
0
0
0
0
0
0
0
0
0
0
0
0
0
0
0
0
0
0
0
0
0
0
0
0
0
0
0
0
0
0
0
0
0
0
0
0
0
0
0
0
0
0
0
0
0
0
0
0
0
0
0
0
0
0
0
0
0
0
0
0
0
0
0
0
0
0
0
0
0
0
0
0
0
0
0
0
0
0
0
0
0
0
0
0
0
0
0
0
0
0
0
0
0
0
0
0
0
0
0
0
0
0
0
0
0
0
0
0
0
0
0
0
0
0
0
0
0
0
0
0
0
0
0
0
0
0
0
0
0
0
0
0
0
0
0
0
0
0
0
0
0
0
0
0
0
0
0
0
0
0
0
0
0
0
0
0
0
0
0
0
0
0
0
0
0
0
0
0
0
0
0
0
0
0
0
0
0
0
0
0
0
0
0
0
0
0
0
0
0
0
0
0
0
0
0
0
0
0
0
0
0
0
0
0
0
0
0
0
0
0
0
0
0
0
0
0
0
0
0
0
0
0
0
0
0
0
0
0
0
0
0
0
0
0
0
0
0
0
0
0
0
0
0
0
0
0
0

ExternalForce_(N) 3 343 double
0 -3.09568e-05 0
0 -0.000138619 0
0 -2.16714e-05 0
0 -0.000168226 0
0 -8.26002e-05 0
0 -8.9203e-05 0
0 -9.74165e-05 0
0 -7.37906e-05 0
0 -6.68156e-05 0
0 -5.47617e-05 0
0 -3.04981e-05 0
0 -0.000105531 0
0 -4.77758e-05 0
0 -0.000161821 0
0 -2.96713e-05 0
0 -7.9067e-05 0
0 -6.57564e-05 0
0 -0.000106704 0
0 -4.11017e-05 0
0 -8.006e-05 0
0 -6.02474e-05 0
0 -0.000115662 0
0 -2.18875e-05 0
0 -4.17098e-05 0
0 -0.000107827 0
0 -7.27379e-05 0
0 -4.13856e-05 0
0 -3.85027e-05 0
0 -3.029e-05 0
0 -0.000128774 0
0 -7.57947e-05 0
0 -0.000162261 0
0 -0.000116775 0
0 -7.15802e-05 0
0 -3.74431e-05 0
0 -0.000108892 0
0 -3.74072e-05 0
0 -0.000136493 0
0 -6.25303e-05 0
0 -7.85756e-05 0
0 -7.52544e-05 0
0 -0.000116589 0
0 -0.000160874 0
0 -2.73339e-05 0
0 -8.7662e-05 0
0 -2.53184e-05 0
0 -7.42972e-05 0
0 -4.15199e-05 0
0 -0.000128792 0
0 -3.72945e-05 0
0 -2.72189e-05 0
0 -7.03157e-05 0
0 -0.000119003 0
0 -5.02041e-05 0
0 -8.04153e-05 0
0 -4.4939e-05 0
0 -2.74192e-05 0
0 -3.19929e-05 0
0 -4.04607e-05 0
0 -2.07889e-05 0
0 -3.28809e-05 0
0 -3.54797e-05 0
0 -0.000153858 0
0 -7.19739e-05 0
0 -8.09026e-05 0
0 -4.90862e-05 0
0 -2.77255e-05 0
0 -7.06591e-05 0
0 -3.20606e-05 0
0 -4.10794e-05 0
0 -1.98932e-05 0
0 -2.37551e-05 0
0 -3.0591e-05 0
0 -5.86107e-05 0
0 -5.75946e-05 0
0 -4.01595e-05 0
0 -5.35099e-05 0
0 -2.24477e-05 0
0 -4.41213e-05 0
0 -4.29866e-05 0
0 -4.42325e-05 0
0 -4.30889e-05 0
0 -4.19155e-05 0
0 -5.21923e-05 0
0 -1.5029e-05 0
0 -2.34331e-05 0
0 -1.9903e-05 0
0 -4.30461e-05 0
0 -3.11931e-05 0
0 -3.08326e-05 0
0 -4.52797e-05 0
0 -5.7648e-05 0
0 -8.02544e-05 0
0 -2.43623e-05 0
0 -0.000150893 0
0 -3.43039e-05 0
0 -7.21258e-05 0
0 -1.97489e-05 0
0 -2.00202e-05 0
0 -7.83017e-05 0
0 -4.32908e-05 0
0 -7.00326e-05 0
0 -1.17841e-05 0
0 -4.93779e-05 0
0 -1.58193e-05 0
0 -4.04762e-05 0
0 -8.57147e-05 0
0 -4.2953e-05 0
0 -7.82027e-05 0
0 -2.09499e-05 0
0 -3.31713e-05 0
0 -9.30599e-05 0
0 -7.26197e-05 0
0 -1.76801e-05 0
0 -2.06228e-05 0
0 -7.8371e-05 0
0 -1.84411e-05 0
0 -7.30662e-05 0
0 -4.11806e-05 0
0 -2.3265e-05 0
0 -4.23503e-05 0
0 -5.94919e-05 0
0 -4.22718e-05 0
0 -2.12723e-05 0
0 -1.86252e-05 0
0 -1.77849e-05 0
0 -3.82356e-05 0
0 -2.39658e-05 0
0 -1.62481e-05 0
0 -7.86148e-05 0
0 -1.61387e-05 0
0 -2.34763e-05 0
0 -2.95637e-05 0
0 -2.93742e-05 0
0 -1.33947e-05 0
0 -1.83735e-05 0
0 -2.05639e-05 0
0 -1.91062e-05 0
0 -1.84053e-05 0
0 -6.25793e-05 0
0 -4.49914e-05 0
0 -1.98914e-05 0
0 -1.58922e-05 0
0 -2.367e-05 0
0 -3.81266e-05 0
0 -4.36518e-05 0
0 -2.25472e-05 0
0 -0.000115119 0
0 -3.05886e-05 0
0 -1.32828e-05 0
0 -3.38507e-05 0
0 -1.78391e-05 0
0 -2.88237e-05 0
0 -1.34771e-05 0
0 -2.36876e-05 0
0 -2.06453e-05 0
0 -2.58912e-05 0
0 -2.10097e-05 0
0 -1.7602e-05 0
0 -3.13896e-05 0
0 -1.34386e-05 0
0 -2.38863e-05 0
0 -2.04203e-05 0
0 -1.33426e-05 0
0 -2.13076e-05 0
0 -1.86316e-05 0
0 -3.10974e-05 0
0 -2.56228e-05 0
0 -2.33161e-05 0
0 -1.57181e-05 0
0 -1.87061e-05 0
0 -5.38771e-05 0
0 -1.84308e-05 0
0 -3.08341e-05 0
0 -2.91652e-05 0
0 -1.16203e-05 0
0 -1.85667e-05 0
0 -2.00287e-05 0
0 -2.68375e-05 0
0 -2.37799e-05 0
0 -3.16945e-05 0
0 -3.13676e-05 0
0 -3.15313e-05 0
0 -1.90796e-05 0
0 -1.58134e-05 0
0 -1.83326e-05 0
0 -3.16308e-05 0
0 -2.07128e-05 0
0 -2.91276e-05 0
0 -6.03597e-05 0
0 -2.26581e-05 0
0 -2.35174e-05 0
0 -2.33506e-05 0
0 -2.59482e-05 0
0 -1.63393e-05 0
0 -1.78912e-05 0
0 -2.02658e-05 0
0 -5.62379e-05 0
0 -2.04507e-05 0
0 -2.14176e-05 0
0 -2.38895e-05 0
0 -3.05955e-05 0
0 -3.11287e-05 0
0 -2.01544e-05 0
0 -1.92198e-05 0
0 -2.99909e-05 0
0 -6.32085e-05 0
0 -2.04829e-05 0
0 -2.67435e-05 0
0 -2.11611e-05 0
0 -1.83262e-05 0
0 -1.96474e-05 0
0 -2.0699e-05 0
0 -2.83503e-05 0
0 -2.27807e-05 0
0 -2.35234e-05 0
0 -1.93874e-05 0
0 -6.29086e-05 0
0 -2.12117e-05 0
0 -3.22943e-05 0
0 -2.06229e-05 0
0 -2.61501e-05 0
0 -1.90721e-05 0
0 -2.86319e-05 0
0 -2.53212e-05 0
0 -2.07681e-05 0
0 -2.05553e-05 0
0 -1.88077e-05 0
0 -6.92631e-05 0
0 -2.20924e-05 0
0 -2.02457e-05 0
0 -6.16224e-05 0
0 -2.08117e-05 0
0 -2.85397e-05 0
0 -2.08875e-05 0
0 -6.32617e-05 0
0 -1.39008e-05 0
0 -2.0289e-05 0
0 -6.45558e-05 0
0 -2.47785e-05 0
0 -2.35177e-05 0
0 -7.28089e-06 0
0 -2.18143e-05 0
0 -6.93323e-06 0
0 -6.87344e-06 0
0 -8.76768e-06 0
0 -2.48719e-05 0
0 -2.22231e-05 0
0 -1.31068e-05 0
0 -7.69816e-06 0
0 -2.27889e-05 0
0 -5.95166e-06 0
0 -6.55579e-06 0
0 -6.71305e-06 0
0 -2.46468e-05 0
0 -2.27228e-05 0
0 -7.6878e-06 0
0 -6.67903e-06 0
0 -6.10861e-05 0
0 -6.6189e-06 0
0 -6.52665e-06 0
0 -6.87836e-06 0
0 -1.78856e-05 0
0 -1.87072e-05 0
0 -6.73674e-06 0
0 -6.91401e-06 0
0 -1.82903e-05 0
0 -2.2423e-05 0
0 -6.67521e-06 0
0 -7.02401e-06 0
0 -1.78908e-05 0
0 -5.89658e-06 0
0 -1.98938e-05 0
0 -7.3162e-06 0
0 -5.63509e-06 0
0 -1.76631e-05 0
0 -1.42638e-05 0
0 -2.22707e-05 0
0 -1.77204e-05 0
0 -2.11264e-05 0
0 -1.75686e-05 0
0 -1.76047e-05 0
0 -6.69346e-06 0
0 -2.20467e-05 0
0 -1.42479e-05 0
0 -1.76144e-05 0
0 -6.84615e-06 0
0 -6.12404e-06 0
0 -6.50125e-06 0
0 -1.41879e-05 0
0 -1.37476e-05 0
0 -2.11168e-05 0
0 -1.79377e-05 0
0 -1.37282e-05 0
0 -1.41198e-05 0
0 -2.15061e-05 0
0 -6.84475e-06 0
0 -1.74349e-05 0
0 -1.75758e-05 0
0 -6.41828e-06 0
0 -7.20025e-06 0
0 -2.30432e-05 0
0 -6.96894e-06 0
0 -6.44499e-06 0
0 -6.14414e-06 0
0 -2.14766e-05 0
0 -6.00855e-06 0
0 -5.92427e-06 0
0 -5.81567e-06 0
0 -5.02303e-06 0
0 -5.01945e-06 0
0 -4.85271e-06 0
0 -4.87573e-06 0
0 -4.8684e-06 0
0 -5.22951e-06 0
0 -4.84801e-06 0
0 -4.88396e-06 0
0 -4.77612e-06 0
0 -4.81304e-06 0
0 -4.85251e-06 0
0 -4.8555e-06 0
0 -4.82575e-06 0
0 -4.80313e-06 0
0 -4.86923e-06 0
0 -4.85781e-06 0
0 -4.73027e-06 0
0 -1.08748e-05 0
0 -5.22863e-06 0
0 -5.34413e-06 0
0 -5.26459e-06 0
0 -5.05624e-06 0
0 -4.92238e-06 0
0 -5.43253e-06 0
0 -5.43253e-06 0
0 -5.43253e-06 0
0 -5.43253e-06 0
0 -5.43253e-06 0
0 -5.43253e-06 0
0 -5.40321e-06 0
0 -5.40321e-06 0
0 -7.3113e-06 0
0 -6.98147e-06 0
0 -4.8949e-06 0

