# vtk DataFile Version 4.2
vtk output
ASCII
DATASET UNSTRUCTURED_GRID

POINTS 343 double
0.00112166 0.0041948 1.26147e-07
0.00216972 0.00498223 0.00217539
0 0.00419538 0.00112517
0.00192808 0.00195413 0.00194221
0.00516377 0.00240397 0.00503198
0.00516827 0.0038277 0.00639704
0.0076184 0.00477003 0.0049981
0.00622087 0.00484692 0.00369146
0.0068308 0.00328397 0.00691302
0.00498823 0.00499052 0.00499953
0.00417584 0.00111572 0.00999855
0.00527547 0.0020771 0.00790333
0.00418424 -1.00795e-05 0.00831659
0.00201064 0.00200222 0.00803329
0.00428273 0.00253096 0.00999859
0.00695534 0.00644266 0.00694584
0.00641188 0.00617891 0.00518241
0.00225845 0.00218424 0.00514608
0 0.00143586 0.00417514
0.00159332 0.00346601 0.00403701
0.00683086 0.00318913 0.0031612
0.00773757 0.00220664 0.0050631
0 0.00270918 0.00154168
0.00415264 0.00142599 3.24902e-07
0.00500176 0.00218481 0.00219813
0.00395902 0.00352529 0.00160324
0.00134352 -8.03267e-07 0.00406003
0.0041764 -1.0571e-05 0.00168848
0.00262517 0.00695117 2.53141e-07
0.0019377 0.00805252 0.00194496
0.00408592 0.00624694 0.0016452
0.00800407 0.00798019 0.00799563
0.00796132 0.00480973 0.0080207
0.00838608 0.00607314 0.00594659
0.0100004 0.0088162 0.00419038
0.00757694 0.00763044 0.00496271
0.00857019 0.00997265 0.00416528
0.0079765 0.00796515 0.0020154
0.00353306 0.00303546 0.00695931
0.00443438 0.00366028 0.00832348
0.00388753 0.00159863 0.00596888
0.00500574 0.00766613 0.007676
0.00198929 0.00800767 0.00798957
0.00282853 0.00999642 0.00712695
0.00391685 0.0083981 0.00595754
0 0.00695361 0.00262895
0.00164571 0.00623907 0.00408791
0 0.0040177 0.00850214
0.00231401 0.0049854 0.00766143
0.00143266 0.00417432 0.00999993
0.00717542 0.00711348 0.0099962
0.0061169 0.00596757 0.00841624
0.00205129 0.00794121 0.00474182
0.00304286 0.00694237 0.00646757
0.00158624 0.0060782 0.005926
0.00998674 0.0057746 0.00831227
0 0.00718191 0.00711644
0.00158369 0.00577325 8.87852e-08
0 0.00577432 0.00158701
0.00999336 0.00714832 0.00711192
0.00286602 0.00334863 0.00999948
0.00996014 0.00139859 0.0041727
0.00802722 0.00193574 0.0019786
0.00838284 0.00349501 0.00399729
0.00372096 0.00164622 0.00412831
0.00150945 0.00999957 0.00581498
0.00280511 -4.86272e-06 0.00712764
0.00610632 0.00416807 0.00837473
0.00999182 0.00724027 0.00419274
0.00851684 -3.06539e-05 0.00416647
0.00333838 0.00286856 2.36231e-07
0.00269791 0.00153793 0.00999952
0.00281356 -5.3796e-06 0.00283205
0.00479574 0.00519229 0.00755358
0.00315531 0.00314549 0.00316734
0 0.00849157 0.00581511
0.00486059 0.00366732 0.00378606
0.00153564 0.00270854 6.25695e-08
0.00580145 0.00831281 0.0099971
0.00598813 0.00998561 0.00850374
0.004216 0.00999212 0.00831671
0.00401893 0.00849672 0.00999827
0.00999954 0.00845766 0.00581111
0.00314622 0.00683292 0.00315087
0 0.00748929 0.00137438
0.00137288 0.00748893 4.90449e-08
0 0.00287343 0.00335182
0 0.00580816 0.00831736
0 0.00429792 0.00253898
0.00253175 0.0042954 2.4416e-07
0.00143349 0.00581907 0.00999994
0.00517425 0.00646643 0.00639946
0.0036026 0.00650863 0.00823338
0.00692706 0.00260795 0.00999672
0.00799196 0.00193288 0.00803236
0.00693142 -2.27265e-05 0.00308158
0.00599328 0.00164814 0.00361252
0.00996731 0.00283754 0.00334976
0 0.00140616 0.00256446
0.00637411 0.00821295 0.00641928
0.00578857 0.00141891 5.2107e-07
0.00601644 0.00353723 0.00160318
0.00315808 0.00999536 0.00582497
0.0085659 0.00997289 0.00583011
0.00255065 0.00140197 2.56519e-07
0.00594034 -1.80268e-05 0.00149468
0.00628061 0.00827299 0.00361644
0.00851274 -3.03941e-05 0.00583089
0.00617969 0.00165613 0.00636387
0.00140138 0.00256398 0.01
0.00710967 0.00716305 -3.42891e-07
0.00516456 0.00767984 0.00216867
0.00593389 0.00608084 0.00160169
0 0.00686719 0.00578184
0.00995889 0.00136858 0.00256288
0.00177106 0.0036097 0.00640786
0.00999752 0.00845254 0.00262132
0.00840083 0.006164 0.00413087
0.00598488 0.0099847 0.00149331
0.00693237 -2.23258e-05 0.00692444
0.00996129 0.00139848 0.00581624
0.00837348 0.00354705 0.00605827
0.00150001 -1.02068e-06 0.00581519
0 0.0013659 0.00748679
0.00136213 -8.58596e-07 0.00752891
0.00999067 0.00683349 0.00577796
0.00581523 0.00847785 -1.16137e-07
0 0.0075208 0.00859127
0.00136494 0.0074864 0.00999984
0.0042308 0.00819865 0.00362801
0.00859992 0.0099727 0.00750827
0.0100016 0.0085965 0.00752146
0.00574955 0.00157164 0.00999747
0.00724216 0.00416866 0.00999641
0 0.0057735 0.00666667
0.00137044 0.00999948 0.00752895
0 0.00863025 0.00752641
0.00854237 -3.12862e-05 0.00250671
0.00998907 0.00691948 0.0026267
0.00844762 0.00631631 0.00216165
0.00849883 0.00579851 0.00999541
0.00745856 0.00135058 0.00999618
0.00854658 -3.07254e-05 0.00750847
0.00996203 0.00132895 0.00748234
0 0.00143551 0.00581971
0.00594417 -1.7369e-05 0.00850365
0.00418616 -1.06432e-05 0.00340001
0.00791499 0.00468417 0.00203365
0.00997447 0.00426302 0.00253707
0.00423345 0.00999179 0.00666563
0.00283732 0.00999647 0.00283184
0.00130519 -8.854e-07 0.0024184
0 0.00727418 0.00419576
0.00998527 0.00573981 0.00666237
0.00697997 0.00998029 0.00308037
0.00751103 0.00861618 0.00999595
0 0.00574334 0.00336387
0 0.0043297 0.00416652
0.00686098 0.00576746 0.00999668
0.00997053 0.00298686 0.00691105
0.00419962 -1.03595e-05 0.00666609
0.00248157 0.00999692 0.00861115
0.00744977 0.00134121 2.00619e-07
0.00577039 0.00665485 0.00999717
0.00999633 0.00748736 0.00858587
0.00860675 0.00752785 0.00999522
0.00688777 0.00300231 3.42479e-07
0.00335704 0.00573975 3.83047e-07
0.00752612 0.00860862 -6.54144e-07
0.00752145 0.00997723 0.00138624
0.00577511 0.00685464 -2.48426e-08
0.00696593 0.00635318 0.00303248
0.00747106 -2.6021e-05 0.00138774
0.00287967 0.00499669 0.00999933
0.00432461 0.0058274 0.00999827
0.0043194 0.00416014 0.00999838
0.00752573 0.00997803 0.00861242
0.00246145 -4.10005e-06 0.00861142
0.00998276 0.00570922 0.00336148
0 0.00302218 0.00691532
0.009977 0.00398339 0.00849708
0.00847598 0.00399027 -2.49838e-07
0.00996532 0.00267278 0.00154044
0 0.00244495 0.00857025
0.00244649 0.00856762 0.0099992
0.00747563 -2.52952e-05 0.00861226
0.00845996 0.00259653 0.00999544
0.00883164 0.00416589 0.00999517
0.00567766 0.00998642 0.00583182
0.00518445 0.00757354 0.0050315
0.00564921 0.00998634 0.00421422
0.00698074 0.00998075 0.00692395
0.00302055 0.00691289 0.00999899
0.00415393 0.00432324 5.01341e-07
0.00281682 -5.54037e-06 0.00440479
0.00313257 -6.20594e-06 0.00582553
0.00997309 0.00416007 0.00112393
0.00363756 0.00833191 0.0015883
0.00997572 0.00429503 0.00416386
0.00665334 0.00575684 1.33354e-07
0.008596 0.00997216 0.00250517
0 0.00848692 0.00262374
0.00135201 0.00999955 0.00405984
0 0.00885053 0.00419359
0.00419491 0.00884244 1.50217e-07
0.00420979 0.00999153 0.00168755
0.00498643 0.00478245 0.0023788
0.00719881 0.00450151 1.4151e-07
0.0056075 -1.65389e-05 0.00421531
0.00563605 -1.64425e-05 0.00583242
0.00131349 0.00999956 0.00241806
0.00853559 0.00241591 -1.12393e-07
0.00997885 0.00448756 0.00721507
0.00712312 0.00997989 0.00499821
0.00572645 0.00335113 0.00999752
0.00244137 -4.36162e-06 0.00135687
0.0099685 0.00240908 0.00856531
0.00239032 0.00478941 0.00499989
0.00581504 0.00431668 4.59591e-07
0.00830125 0.00578267 -5.18494e-07
0.00548715 0.00998745 0.00721878
0.0099768 0.00429568 0.00582967
0.00540891 0.00998715 0.00277488
0.00707404 -2.31333e-05 0.00499917
0.00283986 0.00999649 0.00440425
0 0.00452174 0.00721958
0.00452043 0.007213 0.00999805
0.00544638 -1.53484e-05 0.00721874
0.00359572 0.00506959 0.00359644
0.00425786 0.00999169 0.00500755
0.00422309 -1.06198e-05 0.00500841
0.00366428 0.00521258 0.00617424
0 0.005744 0.00499998
0 0.00433013 0.00583333
0.00498985 0.00573524 4.4049e-07
0.00497843 0.00633048 0.00355348
0.00536799 -1.56274e-05 0.00277612
0.0099839 0.00571015 0.00499665
0.00368638 0.00640353 0.00484366
0.00573405 0.00498867 0.0099974
0.0099819 0.00573989 0.00158541
0 0.00666667 0
0.00858395 0.00749413 -9.58529e-07
0.00331065 -8.27239e-06 1.16069e-06
0 0.01 0.00666667
0.00500914 0.00998886 0.00999802
0 0.00288419 0.00499914
0.0099913 0.00745501 0.00137268
0.00998606 0.00663224 -1.39807e-06
0 0.005 0.01
0.0049777 0.0028731 4.23443e-07
0 0.005 0
0.00995171 -3.88564e-05 0.00333157
0.0100086 0.00996494 0.00666199
0.00419192 0.00726759 2.55392e-07
0.00996835 0.00284862 0.0049961
0.00496753 -1.47981e-05 1.17469e-06
0 0 0.00666667
0.00378729 0.00361158 0.00522609
0.00497219 -1.40539e-05 0.00999743
0.00995399 -3.84589e-05 0.0066627
0 0 0.005
0.00878642 0.00997088 0.00121849
0.00999835 0.00874504 0.00121818
0.00995278 -3.85869e-05 0.00499715
0.00997695 0.00496487 -1.07892e-06
0.00121419 0.00121902 4.32442e-09
0 0.00122008 0.00122008
0 0.00333333 0.01
0 0.00666667 0.01
0.00877924 0.00875151 -1.28251e-06
0.0100064 0.00996445 0.00333027
0.00422064 0.00999163 0.00339919
0.00999259 0.00663338 0.0099944
0 0.00333333 0
0 0.00122008 0.00877992
0.00121356 -1.10483e-06 0.00877958
0.00121516 0.00121937 0.0100001
0.00879117 0.00997163 0.00877547
0.00121993 0.00877935 0.00999983
0 0.00877992 0.00877992
0.0100035 0.00874604 0.00877449
0.00667318 0.00998111 -8.97013e-07
0.00995696 0.00118199 0.0012192
0.00122115 0.00999927 0.00878012
0.00878571 0.00875255 0.00999516
0.00998342 0.00496619 0.00999445
0 0 0.00333333
0.00662577 -2.20541e-05 1.02767e-06
0.00873248 -3.26707e-05 0.00122014
0.00120424 -1.16511e-06 0.00121223
0 0.00877992 0.00122008
0.0012196 0.00877927 1.3955e-07
0.0012122 0.00999935 0.00121136
0.00996202 0.00118286 0.00877469
0.00874483 0.0011893 0.0099951
0.00663177 -2.13159e-05 0.00999607
0.00873824 0.00118839 -1.72027e-09
0.00873757 -3.1901e-05 0.00877518
0.00996794 0.00329728 -8.22992e-07
0.00333979 0.0099941 0.0099993
0.00246216 0.00999719 0.00135633
0.00667845 0.00998204 0.00999696
0.00997432 0.00329859 0.00999445
0 0.01 0.005
0.00262354 0.00848398 2.52275e-07
0.0100074 0.0099647 0.00499625
0 0.01 0.00333333
0 0.00166667 0
0.00995066 -3.92279e-05 0.00166586
0 0.00166667 0.01
0 0.00833333 0
0.00999533 0.00829847 -1.71948e-06
0.00995517 -3.85497e-05 0.00832813
0.0100054 0.00996417 0.00166441
0.0100097 0.009965 0.00832807
0.0016696 0.00999801 0.00999983
0 0.01 0.00833333
0.00833962 0.0099729 -1.3722e-06
0.00828659 -3.07796e-05 4.56794e-07
0.00829313 -2.99666e-05 0.00999503
0.00834557 0.00997365 0.00999563
0 0 0.00833333
0.0100019 0.00829965 0.00999431
0.00165507 -2.8853e-06 3.60473e-07
0 0 0.00166667
0.00333811 0.00999434 7.51491e-08
0.00996527 0.00162972 0.00999436
0.00995877 0.00162877 -6.26726e-07
0.00165691 -2.35063e-06 0.00999994
0.00166872 0.00999843 9.17476e-08
0 0.01 0.00166667
0.010011 0.00996504 0.00999443
0 0 0.01
0.0100045 0.00996395 -2.13636e-06
0.00995626 -3.86836e-05 0.00999392
0 0.01 0.01
0.00994967 -3.95331e-05 -2.44371e-07
0 0.01 0
0 0 0
0.00500581 0.0099882 -2.95282e-07
0.00331406 -7.42614e-06 0.00999857
0 0.00833333 0.01

CELLS 343 686
1 0
1 1
1 2
1 3
1 4
1 5
1 6
1 7
1 8
1 9
1 10
1 11
1 12
1 13
1 14
1 15
1 16
1 17
1 18
1 19
1 20
1 21
1 22
1 23
1 24
1 25
1 26
1 27
1 28
1 29
1 30
1 31
1 32
1 33
1 34
1 35
1 36
1 37
1 38
1 39
1 40
1 41
1 42
1 43
1 44
1 45
1 46
1 47
1 48
1 49
1 50
1 51
1 52
1 53
1 54
1 55
1 56
1 57
1 58
1 59
1 60
1 61
1 62
1 63
1 64
1 65
1 66
1 67
1 68
1 69
1 70
1 71
1 72
1 73
1 74
1 75
1 76
1 77
1 78
1 79
1 80
1 81
1 82
1 83
1 84
1 85
1 86
1 87
1 88
1 89
1 90
1 91
1 92
1 93
1 94
1 95
1 96
1 97
1 98
1 99
1 100
1 101
1 102
1 103
1 104
1 105
1 106
1 107
1 108
1 109
1 110
1 111
1 112
1 113
1 114
1 115
1 116
1 117
1 118
1 119
1 120
1 121
1 122
1 123
1 124
1 125
1 126
1 127
1 128
1 129
1 130
1 131
1 132
1 133
1 134
1 135
1 136
1 137
1 138
1 139
1 140
1 141
1 142
1 143
1 144
1 145
1 146
1 147
1 148
1 149
1 150
1 151
1 152
1 153
1 154
1 155
1 156
1 157
1 158
1 159
1 160
1 161
1 162
1 163
1 164
1 165
1 166
1 167
1 168
1 169
1 170
1 171
1 172
1 173
1 174
1 175
1 176
1 177
1 178
1 179
1 180
1 181
1 182
1 183
1 184
1 185
1 186
1 187
1 188
1 189
1 190
1 191
1 192
1 193
1 194
1 195
1 196
1 197
1 198
1 199
1 200
1 201
1 202
1 203
1 204
1 205
1 206
1 207
1 208
1 209
1 210
1 211
1 212
1 213
1 214
1 215
1 216
1 217
1 218
1 219
1 220
1 221
1 222
1 223
1 224
1 225
1 226
1 227
1 228
1 229
1 230
1 231
1 232
1 233
1 234
1 235
1 236
1 237
1 238
1 239
1 240
1 241
1 242
1 243
1 244
1 245
1 246
1 247
1 248
1 249
1 250
1 251
1 252
1 253
1 254
1 255
1 256
1 257
1 258
1 259
1 260
1 261
1 262
1 263
1 264
1 265
1 266
1 267
1 268
1 269
1 270
1 271
1 272
1 273
1 274
1 275
1 276
1 277
1 278
1 279
1 280
1 281
1 282
1 283
1 284
1 285
1 286
1 287
1 288
1 289
1 290
1 291
1 292
1 293
1 294
1 295
1 296
1 297
1 298
1 299
1 300
1 301
1 302
1 303
1 304
1 305
1 306
1 307
1 308
1 309
1 310
1 311
1 312
1 313
1 314
1 315
1 316
1 317
1 318
1 319
1 320
1 321
1 322
1 323
1 324
1 325
1 326
1 327
1 328
1 329
1 330
1 331
1 332
1 333
1 334
1 335
1 336
1 337
1 338
1 339
1 340
1 341
1 342

CELL_TYPES 343
1
1
1
1
1
1
1
1
1
1
1
1
1
1
1
1
1
1
1
1
1
1
1
1
1
1
1
1
1
1
1
1
1
1
1
1
1
1
1
1
1
1
1
1
1
1
1
1
1
1
1
1
1
1
1
1
1
1
1
1
1
1
1
1
1
1
1
1
1
1
1
1
1
1
1
1
1
1
1
1
1
1
1
1
1
1
1
1
1
1
1
1
1
1
1
1
1
1
1
1
1
1
1
1
1
1
1
1
1
1
1
1
1
1
1
1
1
1
1
1
1
1
1
1
1
1
1
1
1
1
1
1
1
1
1
1
1
1
1
1
1
1
1
1
1
1
1
1
1
1
1
1
1
1
1
1
1
1
1
1
1
1
1
1
1
1
1
1
1
1
1
1
1
1
1
1
1
1
1
1
1
1
1
1
1
1
1
1
1
1
1
1
1
1
1
1
1
1
1
1
1
1
1
1
1
1
1
1
1
1
1
1
1
1
1
1
1
1
1
1
1
1
1
1
1
1
1
1
1
1
1
1
1
1
1
1
1
1
1
1
1
1
1
1
1
1
1
1
1
1
1
1
1
1
1
1
1
1
1
1
1
1
1
1
1
1
1
1
1
1
1
1
1
1
1
1
1
1
1
1
1
1
1
1
1
1
1
1
1
1
1
1
1
1
1
1
1
1
1
1
1
1
1
1
1
1
1
1
1
1
1
1
1
1
1
1
1
1
1
1
1
1
1
1
1
1
1
1
1
1
1
1
1
1
1
1
1
1
1
1
1
1
1

POINT_DATA 343
FIELD FieldData 3

ExternalForceID_(#) 1 343 int
0
1
2
3
4
5
6
7
8
9
10
11
12
13
14
15
16
17
18
19
20
21
22
23
24
25
26
27
28
29
30
31
32
33
34
35
36
37
38
39
40
41
42
43
44
45
46
47
48
49
50
51
52
53
54
55
56
57
58
59
60
61
62
63
64
65
66
67
68
69
70
71
72
73
74
75
76
77
78
79
80
81
82
83
84
85
86
87
88
89
90
91
92
93
94
95
96
97
98
99
100
101
102
103
104
105
106
107
108
109
110
111
112
113
114
115
116
117
118
119
120
121
122
123
124
125
126
127
128
129
130
131
132
133
134
135
136
137
138
139
140
141
142
143
144
145
146
147
148
149
150
151
152
153
154
155
156
157
158
159
160
161
162
163
164
165
166
167
168
169
170
171
172
173
174
175
176
177
178
179
180
181
182
183
184
185
186
187
188
189
190
191
192
193
194
195
196
197
198
199
200
201
202
203
204
205
206
207
208
209
210
211
212
213
214
215
216
217
218
219
220
221
222
223
224
225
226
227
228
229
230
231
232
233
234
235
236
237
238
239
240
241
242
243
244
245
246
247
248
249
250
251
252
253
254
255
256
257
258
259
260
261
262
263
264
265
266
267
268
269
270
271
272
273
274
275
276
277
278
279
280
281
282
283
284
285
286
287
288
289
290
291
292
293
294
295
296
297
298
299
300
301
302
303
304
305
306
307
308
309
310
311
312
313
314
315
316
317
318
319
320
321
322
323
324
325
326
327
328
329
330
331
332
333
334
335
336
337
338
339
340
341
342

ExternalForceType_(0/1/2/3/4) 1 343 int
0
0
0
0
0
0
0
0
0
0
0
0
0
0
0
0
0
0
0
0
0
0
0
0
0
0
0
0
0
0
0
0
0
0
0
0
0
0
0
0
0
0
0
0
0
0
0
0
0
0
0
0
0
0
0
0
0
0
0
0
0
0
0
0
0
0
0
0
0
0
0
0
0
0
0
0
0
0
0
0
0
0
0
0
0
0
0
0
0
0
0
0
0
0
0
0
0
0
0
0
0
0
0
0
0
0
0
0
0
0
0
0
0
0
0
0
0
0
0
0
0
0
0
0
0
0
0
0
0
0
0
0
0
0
0
0
0
0
0
0
0
0
0
0
0
0
0
0
0
0
0
0
0
0
0
0
0
0
0
0
0
0
0
0
0
0
0
0
0
0
0
0
0
0
0
0
0
0
0
0
0
0
0
0
0
0
0
0
0
0
0
0
0
0
0
0
0
0
0
0
0
0
0
0
0
0
0
0
0
0
0
0
0
0
0
0
0
0
0
0
0
0
0
0
0
0
0
0
0
0
0
0
0
0
0
0
0
0
0
0
0
0
0
0
0
0
0
0
0
0
0
0
0
0
0
0
0
0
0
0
0
0
0
0
0
0
0
0
0
0
0
0
0
0
0
0
0
0
0
0
0
0
0
0
0
0
0
0
0
0
0
0
0
0
0
0
0
0
0
0
0
0
0
0
0
0
0
0
0
0
0
0
0
0
0
0
0
0
0
0
0
0
0
0
0
0
0
0
0
0
0
0
0
0
0
0
0
0
0
0
0
0
0

ExternalForce_(N) 3 343 double
0 -3.09568e-05 0
0 -0.000138619 0
0 -2.16714e-05 0
0 -0.000168226 0
0 -8.26002e-05 0
0 -8.9203e-05 0
0 -9.74165e-05 0
0 -7.37906e-05 0
0 -6.68156e-05 0
0 -5.47617e-05 0
0 -3.04981e-05 0
0 -0.000105531 0
0 -4.77758e-05 0
0 -0.000161821 0
0 -2.96713e-05 0
0 -7.9067e-05 0
0 -6.57564e-05 0
0 -0.000106704 0
0 -4.11017e-05 0
0 -8.006e-05 0
0 -6.02474e-05 0
0 -0.000115662 0
0 -2.18875e-05 0
0 -4.17098e-05 0
0 -0.000107827 0
0 -7.27379e-05 0
0 -4.13856e-05 0
0 -3.85027e-05 0
0 -3.029e-05 0
0 -0.000128774 0
0 -7.57947e-05 0
0 -0.000162261 0
0 -0.000116775 0
0 -7.15802e-05 0
0 -3.74431e-05 0
0 -0.000108892 0
0 -3.74072e-05 0
0 -0.000136493 0
0 -6.25303e-05 0
0 -7.85756e-05 0
0 -7.52544e-05 0
0 -0.000116589 0
0 -0.000160874 0
0 -2.73339e-05 0
0 -8.7662e-05 0
0 -2.53184e-05 0
0 -7.42972e-05 0
0 -4.15199e-05 0
0 -0.000128792 0
0 -3.72945e-05 0
0 -2.72189e-05 0
0 -7.03157e-05 0
0 -0.000119003 0
0 -5.02041e-05 0
0 -8.04153e-05 0
0 -4.4939e-05 0
0 -2.74192e-05 0
0 -3.19929e-05 0
0 -4.04607e-05 0
0 -2.07889e-05 0
0 -3.28809e-05 0
0 -3.54797e-05 0
0 -0.000153858 0
0 -7.19739e-05 0
0 -8.09026e-05 0
0 -4.90862e-05 0
0 -2.77255e-05 0
0 -7.06591e-05 0
0 -3.20606e-05 0
0 -4.10794e-05 0
0 -1.98932e-05 0
0 -2.37551e-05 0
0 -3.0591e-05 0
0 -5.86107e-05 0
0 -5.75946e-05 0
0 -4.01595e-05 0
0 -5.35099e-05 0
0 -2.24477e-05 0
0 -4.41213e-05 0
0 -4.29866e-05 0
0 -4.42325e-05 0
0 -4.30889e-05 0
0 -4.19155e-05 0
0 -5.21923e-05 0
0 -1.5029e-05 0
0 -2.34331e-05 0
0 -1.9903e-05 0
0 -4.30461e-05 0
0 -3.11931e-05 0
0 -3.08326e-05 0
0 -4.52797e-05 0
0 -5.7648e-05 0
0 -8.02544e-05 0
0 -2.43623e-05 0
0 -0.000150893 0
0 -3.43039e-05 0
0 -7.21258e-05 0
0 -1.97489e-05 0
0 -2.00202e-05 0
0 -7.83017e-05 0
0 -4.32908e-05 0
0 -7.00326e-05 0
0 -1.17841e-05 0
0 -4.93779e-05 0
0 -1.58193e-05 0
0 -4.04762e-05 0
0 -8.57147e-05 0
0 -4.2953e-05 0
0 -7.82027e-05 0
0 -2.09499e-05 0
0 -3.31713e-05 0
0 -9.30599e-05 0
0 -7.26197e-05 0
0 -1.76801e-05 0
0 -2.06228e-05 0
0 -7.8371e-05 0
0 -1.84411e-05 0
0 -7.30662e-05 0
0 -4.11806e-05 0
0 -2.3265e-05 0
0 -4.23503e-05 0
0 -5.94919e-05 0
0 -4.22718e-05 0
0 -2.12723e-05 0
0 -1.86252e-05 0
0 -1.77849e-05 0
0 -3.82356e-05 0
0 -2.39658e-05 0
0 -1.62481e-05 0
0 -7.86148e-05 0
0 -1.61387e-05 0
0 -2.34763e-05 0
0 -2.95637e-05 0
0 -2.93742e-05 0
0 -1.33947e-05 0
0 -1.83735e-05 0
0 -2.05639e-05 0
0 -1.91062e-05 0
0 -1.84053e-05 0
0 -6.25793e-05 0
0 -4.49914e-05 0
0 -1.98914e-05 0
0 -1.58922e-05 0
0 -2.367e-05 0
0 -3.81266e-05 0
0 -4.36518e-05 0
0 -2.25472e-05 0
0 -0.000115119 0
0 -3.05886e-05 0
0 -1.32828e-05 0
0 -3.38507e-05 0
0 -1.78391e-05 0
0 -2.88237e-05 0
0 -1.34771e-05 0
0 -2.36876e-05 0
0 -2.06453e-05 0
0 -2.58912e-05 0
0 -2.10097e-05 0
0 -1.7602e-05 0
0 -3.13896e-05 0
0 -1.34386e-05 0
0 -2.38863e-05 0
0 -2.04203e-05 0
0 -1.33426e-05 0
0 -2.13076e-05 0
0 -1.86316e-05 0
0 -3.10974e-05 0
0 -2.56228e-05 0
0 -2.33161e-05 0
0 -1.57181e-05 0
0 -1.87061e-05 0
0 -5.38771e-05 0
0 -1.84308e-05 0
0 -3.08341e-05 0
0 -2.91652e-05 0
0 -1.16203e-05 0
0 -1.85667e-05 0
0 -2.00287e-05 0
0 -2.68375e-05 0
0 -2.37799e-05 0
0 -3.16945e-05 0
0 -3.13676e-05 0
0 -3.15313e-05 0
0 -1.90796e-05 0
0 -1.58134e-05 0
0 -1.83326e-05 0
0 -3.16308e-05 0
0 -2.07128e-05 0
0 -2.91276e-05 0
0 -6.03597e-05 0
0 -2.26581e-05 0
0 -2.35174e-05 0
0 -2.33506e-05 0
0 -2.59482e-05 0
0 -1.63393e-05 0
0 -1.78912e-05 0
0 -2.02658e-05 0
0 -5.62379e-05 0
0 -2.04507e-05 0
0 -2.14176e-05 0
0 -2.38895e-05 0
0 -3.05955e-05 0
0 -3.11287e-05 0
0 -2.01544e-05 0
0 -1.92198e-05 0
0 -2.99909e-05 0
0 -6.32085e-05 0
0 -2.04829e-05 0
0 -2.67435e-05 0
0 -2.11611e-05 0
0 -1.83262e-05 0
0 -1.96474e-05 0
0 -2.0699e-05 0
0 -2.83503e-05 0
0 -2.27807e-05 0
0 -2.35234e-05 0
0 -1.93874e-05 0
0 -6.29086e-05 0
0 -2.12117e-05 0
0 -3.22943e-05 0
0 -2.06229e-05 0
0 -2.61501e-05 0
0 -1.90721e-05 0
0 -2.86319e-05 0
0 -2.53212e-05 0
0 -2.07681e-05 0
0 -2.05553e-05 0
0 -1.88077e-05 0
0 -6.92631e-05 0
0 -2.20924e-05 0
0 -2.02457e-05 0
0 -6.16224e-05 0
0 -2.08117e-05 0
0 -2.85397e-05 0
0 -2.08875e-05 0
0 -6.32617e-05 0
0 -1.39008e-05 0
0 -2.0289e-05 0
0 -6.45558e-05 0
0 -2.47785e-05 0
0 -2.35177e-05 0
0 -7.28089e-06 0
0 -2.18143e-05 0
0 -6.93323e-06 0
0 -6.87344e-06 0
0 -8.76768e-06 0
0 -2.48719e-05 0
0 -2.22231e-05 0
0 -1.31068e-05 0
0 -7.69816e-06 0
0 -2.27889e-05 0
0 -5.95166e-06 0
0 -6.55579e-06 0
0 -6.71305e-06 0
0 -2.46468e-05 0
0 -2.27228e-05 0
0 -7.6878e-06 0
0 -6.67903e-06 0
0 -6.10861e-05 0
0 -6.6189e-06 0
0 -6.52665e-06 0
0 -6.87836e-06 0
0 -1.78856e-05 0
0 -1.87072e-05 0
0 -6.73674e-06 0
0 -6.91401e-06 0
0 -1.82903e-05 0
0 -2.2423e-05 0
0 -6.67521e-06 0
0 -7.02401e-06 0
0 -1.78908e-05 0
0 -5.89658e-06 0
0 -1.98938e-05 0
0 -7.3162e-06 0
0 -5.63509e-06 0
0 -1.76631e-05 0
0 -1.42638e-05 0
0 -2.22707e-05 0
0 -1.77204e-05 0
0 -2.11264e-05 0
0 -1.75686e-05 0
0 -1.76047e-05 0
0 -6.69346e-06 0
0 -2.20467e-05 0
0 -1.42479e-05 0
0 -1.76144e-05 0
0 -6.84615e-06 0
0 -6.12404e-06 0
0 -6.50125e-06 0
0 -1.41879e-05 0
0 -1.37476e-05 0
0 -2.11168e-05 0
0 -1.79377e-05 0
0 -1.37282e-05 0
0 -1.41198e-05 0
0 -2.15061e-05 0
0 -6.84475e-06 0
0 -1.74349e-05 0
0 -1.75758e-05 0
0 -6.41828e-06 0
0 -7.20025e-06 0
0 -2.30432e-05 0
0 -6.96894e-06 0
0 -6.44499e-06 0
0 -6.14414e-06 0
0 -2.14766e-05 0
0 -6.00855e-06 0
0 -5.92427e-06 0
0 -5.81567e-06 0
0 -5.02303e-06 0
0 -5.01945e-06 0
0 -4.85271e-06 0
0 -4.87573e-06 0
0 -4.8684e-06 0
0 -5.22951e-06 0
0 -4.84801e-06 0
0 -4.88396e-06 0
0 -4.77612e-06 0
0 -4.81304e-06 0
0 -4.85251e-06 0
0 -4.8555e-06 0
0 -4.82575e-06 0
0 -4.80313e-06 0
0 -4.86923e-06 0
0 -4.85781e-06 0
0 -4.73027e-06 0
0 -1.08748e-05 0
0 -5.22863e-06 0
0 -5.34413e-06 0
0 -5.26459e-06 0
0 -5.05624e-06 0
0 -4.92238e-06 0
0 -5.43253e-06 0
0 -5.43253e-06 0
0 -5.43253e-06 0
0 -5.43253e-06 0
0 -5.43253e-06 0
0 -5.43253e-06 0
0 -5.40321e-06 0
0 -5.40321e-06 0
0 -7.3113e-06 0
0 -6.98147e-06 0
0 -4.8949e-06 0

