# vtk DataFile Version 4.2
vtk output
ASCII
DATASET UNSTRUCTURED_GRID

POINTS 343 double
0.00126172 0.00420075 -5.04002e-06
0.00243836 0.00499447 0.00216514
0 0.00419538 0.00112517
0.00217329 0.00196513 0.00193302
0.00582809 0.00244791 0.00500712
0.00582234 0.00386845 0.00637173
0.00857874 0.00484266 0.0049616
0.00700115 0.00490045 0.00366262
0.00770315 0.00334761 0.00687877
0.00561048 0.00502828 0.00497583
0.00471973 0.00115037 0.00997809
0.00595675 0.00212291 0.00787734
0.00473664 2.58045e-05 0.00829674
0.00226674 0.00201322 0.00802362
0.00483179 0.00256401 0.00997743
0.00781495 0.00650325 0.00691126
0.0072048 0.00623313 0.00515198
0.00254582 0.00219747 0.0051356
0 0.00143586 0.00417514
0.00179352 0.00347428 0.0040299
0.00770498 0.00325409 0.00312968
0.00873774 0.00228586 0.00502571
0 0.00270918 0.00154168
0.00469257 0.00146184 -1.79894e-05
0.00564736 0.00222843 0.00217441
0.00445962 0.0035539 0.00158479
0.00151833 6.28663e-06 0.00405369
0.00472819 2.63108e-05 0.00166847
0.00294617 0.00696703 -1.15208e-05
0.0021719 0.00806293 0.00193577
0.00458844 0.00627443 0.00162637
0.00898314 0.00805424 0.00795476
0.00896558 0.00488617 0.00797971
0.00943346 0.00615474 0.00590587
0.0112344 0.00891954 0.00414394
0.0085044 0.00769951 0.00492709
0.00960467 0.0100543 0.00412618
0.00895324 0.00804019 0.00198046
0.00398166 0.00305961 0.0069426
0.00499597 0.0036926 0.00830164
0.00439093 0.00162909 0.00595014
0.00561289 0.0077039 0.00765163
0.00223059 0.00801852 0.00798069
0.00316168 0.0100142 0.00711447
0.00438671 0.00842552 0.00593943
0 0.00695361 0.00262895
0.001848 0.00624804 0.00408027
0 0.0040177 0.00850214
0.00260049 0.00499827 0.00765081
0.00161111 0.00418186 0.00999347
0.00805876 0.0071765 0.00995933
0.00687504 0.00601755 0.00838544
0.00230026 0.00795226 0.00473244
0.00341469 0.00696042 0.00645379
0.0017816 0.00608657 0.00591868
0.0112483 0.00587967 0.00826082
0 0.00718191 0.00711644
0.00177866 0.00578212 -7.03268e-06
0 0.00577432 0.00158701
0.0112422 0.00725181 0.00706147
0.00322777 0.00336668 0.00998547
0.0112631 0.0015129 0.0041253
0.00906922 0.00202061 0.00194228
0.00945534 0.00358098 0.00395799
0.00420264 0.00167532 0.00411035
0.00168883 0.0100067 0.00580824
0.0031763 1.56684e-05 0.00711437
0.00687818 0.00421965 0.00834407
0.0112397 0.00734349 0.00414589
0.00964251 6.50175e-05 0.00412568
0.00376301 0.00289187 -1.44299e-05
0.00304602 0.00155612 0.00998628
0.00318569 1.62305e-05 0.00281884
0.00539393 0.00522727 0.00753004
0.00355443 0.00316584 0.00315237
0 0.00849157 0.00581511
0.00547632 0.00370533 0.00376299
0.00172961 0.00271637 -6.78907e-06
0.00650413 0.0083599 0.0099679
0.00670062 0.0100348 0.00847329
0.00471575 0.010023 0.00829626
0.00450322 0.00852588 0.00997918
0.0112366 0.00856064 0.00576255
0.0035309 0.00685223 0.00313593
0 0.00748929 0.00137438
0.00153944 0.00749564 -6.09209e-06
0 0.00287343 0.00335182
0 0.00580816 0.00831736
0 0.00429792 0.00253898
0.00284762 0.00431089 -1.10429e-05
0.00161015 0.00582633 0.00999344
0.00580988 0.00650552 0.00637459
0.00404525 0.00653081 0.0082163
0.00781972 0.00267419 0.0099609
0.00902855 0.00201583 0.00799122
0.00784793 4.95718e-05 0.00304889
0.00677191 0.00170475 0.00358398
0.0112569 0.00294893 0.00330352
0 0.00140616 0.00256446
0.00714655 0.00826691 0.00638853
0.00654477 0.00147467 -2.49956e-05
0.00678359 0.00359104 0.00157585
0.00353073 0.0100165 0.00581007
0.00959955 0.0100541 0.00578908
0.00288088 0.00142064 -1.10616e-05
0.00672742 4.10532e-05 0.00146688
0.00704109 0.00832639 0.00358755
0.00963722 6.46635e-05 0.00578851
0.00698168 0.00171428 0.00633346
0.00157872 0.00257075 0.00999357
0.00798464 0.00722733 -3.06042e-05
0.00579049 0.00772037 0.00214547
0.00666823 0.00612948 0.00157525
0 0.00686719 0.00578184
0.0112629 0.00148357 0.00251716
0.00199329 0.00361914 0.00639954
0.0112354 0.00855631 0.00257668
0.00944928 0.00624652 0.00409164
0.00669649 0.0100354 0.00146756
0.00784876 4.95424e-05 0.00688963
0.011264 0.00151213 0.00576654
0.00944439 0.00363261 0.00601674
0.00169451 7.12635e-06 0.00580829
0 0.0013659 0.00748679
0.00153842 6.53927e-06 0.00752282
0.011242 0.00693712 0.00572963
0.0065174 0.00852649 -2.46841e-05
0 0.0075208 0.00859127
0.00153151 0.00749311 0.00999374
0.00473938 0.00822938 0.00360852
0.00963812 0.0100545 0.00746489
0.0112376 0.00869887 0.0074709
0.00649767 0.00162457 0.00996814
0.00816125 0.00423558 0.00995886
0 0.0057735 0.00666667
0.00153372 0.0100062 0.00752254
0 0.00863025 0.00752641
0.00967238 6.56109e-05 0.00246693
0.0112406 0.00702347 0.00258172
0.00950124 0.00639968 0.00212427
0.00956361 0.00588121 0.00995062
0.0084317 0.00142707 0.00995732
0.00967604 6.50769e-05 0.00746506
0.011266 0.00144255 0.00743097
0 0.00143551 0.00581971
0.00673043 4.03833e-05 0.00847387
0.00474042 2.66332e-05 0.00337991
0.00891529 0.00476203 0.00199839
0.011251 0.0043721 0.00249237
0.00473287 0.0100232 0.00664581
0.00317044 0.0100143 0.00281881
0.00147469 6.22825e-06 0.002412
0 0.00727418 0.00419576
0.011247 0.00584557 0.0066125
0.00781481 0.0100425 0.00304925
0.0084244 0.0086845 0.00995717
0 0.00574334 0.00336387
0 0.0043297 0.00416652
0.00771663 0.0058272 0.00996104
0.0112585 0.00309734 0.0068603
0.00475503 2.63332e-05 0.00664573
0.00277405 0.0100123 0.00859953
0.00842346 0.00141979 -3.23298e-05
0.0064815 0.00670074 0.00996816
0.0112424 0.00759043 0.00853452
0.0096689 0.00761045 0.00994991
0.00777304 0.00306938 -3.00772e-05
0.00377174 0.00576086 -1.47259e-05
0.00844174 0.00867824 -3.24229e-05
0.00842504 0.0100467 0.00135391
0.00648438 0.00690221 -2.46334e-05
0.00782815 0.00641504 0.00300072
0.00845967 5.52263e-05 0.00135357
0.0032377 0.00501358 0.00998542
0.00486149 0.00585684 0.00997699
0.00486416 0.00419058 0.00997704
0.00842847 0.0100466 0.00857358
0.00278607 1.38392e-05 0.00859985
0.011245 0.00581623 0.00331569
0 0.00302218 0.00691532
0.0112558 0.0040915 0.00844533
0.00955873 0.00407854 -3.63886e-05
0.0112574 0.00278516 0.00149643
0 0.00244495 0.00857025
0.00274118 0.00858282 0.00998786
0.00846366 5.46241e-05 0.00857406
0.00955229 0.00268447 0.00995081
0.00995704 0.00425629 0.0099484
0.00635188 0.0100329 0.00580476
0.00581389 0.00761373 0.00500707
0.00631975 0.0100329 0.00418825
0.0078151 0.0100423 0.00688967
0.00339064 0.00693017 0.0099847
0.00467561 0.00435305 -1.81401e-05
0.00318827 1.62021e-05 0.00439091
0.00354675 1.81086e-05 0.00581008
0.0112516 0.00426993 0.00108054
0.00407484 0.0083576 0.00157163
0.011251 0.00440344 0.00411632
0.00748308 0.00581623 -2.86396e-05
0.00963443 0.0100546 0.00246733
0 0.00848692 0.00262374
0.00151349 0.0100061 0.00405377
0 0.00885053 0.00419359
0.00469705 0.00887432 -1.81799e-05
0.00470581 0.0100234 0.00166879
0.00561047 0.00482032 0.00235594
0.0081101 0.00457017 -3.12098e-05
0.00634821 3.80341e-05 0.00418807
0.00638015 3.80381e-05 0.00580487
0.00147 0.010006 0.00241206
0.00964176 0.0025077 -3.66406e-05
0.0112526 0.00459499 0.00716416
0.00797513 0.0100432 0.00496495
0.00645686 0.0033993 0.0099685
0.00276436 1.3967e-05 0.00134511
0.0112626 0.00252067 0.00851316
0.00268738 0.00480331 0.00498867
0.00655063 0.00436681 -2.52743e-05
0.0093429 0.00586511 -3.56881e-05
0.00613828 0.0100315 0.00719208
0.0112522 0.00440371 0.00578043
0.00604987 0.0100314 0.00275094
0.00800886 5.08753e-05 0.00496487
0.00317375 0.0100143 0.00439119
0 0.00452174 0.00721958
0.00507277 0.00724484 0.00997591
0.00616574 3.62169e-05 0.00719224
0.00404237 0.00509308 0.00357952
0.00475914 0.0100233 0.00498774
0.00478217 2.68817e-05 0.0049875
0.00411933 0.00523631 0.00615703
0 0.005744 0.00499998
0 0.00433013 0.00583333
0.00560902 0.00577284 -2.15979e-05
0.00559048 0.00636762 0.00353019
0.00607802 3.61842e-05 0.00275042
0.0112457 0.00581695 0.00494855
0.00413876 0.00642726 0.00482652
0.00645278 0.00503415 0.00996846
0.0112449 0.00584725 0.001542
0 0.00666667 0
0.00964622 0.00757871 -3.67679e-05
0.00374857 2.06336e-05 -1.48546e-05
0 0.01 0.00666667
0.00560562 0.010028 0.00997304
0 0.00288419 0.00499914
0.0112388 0.00755883 0.0013298
0.0112421 0.00673824 -4.3334e-05
0 0.005 0.01
0.00561628 0.00291512 -2.15454e-05
0 0.005 0
0.0112696 7.99743e-05 0.00328483
0.0112335 0.0100654 0.00661239
0.00470252 0.00729745 -1.81357e-05
0.0112575 0.00295983 0.0049476
0.00562555 3.35283e-05 -2.19477e-05
0 0 0.00666667
0.00426528 0.00363743 0.00520816
0.00562995 3.27236e-05 0.00997355
0.0112715 7.94628e-05 0.00661203
0 0 0.005
0.00985073 0.0100562 0.00118128
0.0112344 0.00884876 0.00117558
0.0112703 7.96377e-05 0.00494827
0.0112489 0.0050738 -4.30476e-05
0.00136945 0.00122623 -5.32835e-06
0 0.00122008 0.00122008
0 0.00333333 0.01
0 0.00666667 0.01
0.0098554 0.00883805 -3.75104e-05
0.0112314 0.0100658 0.00328489
0.00471728 0.0100233 0.00338013
0.0112477 0.00673698 0.00994066
0 0.00333333 0
0 0.00122008 0.00877992
0.00137081 6.06967e-06 0.00877456
0.00137012 0.00122585 0.00999435
0.00985471 0.0100562 0.00872954
0.00136756 0.00878574 0.00999444
0 0.00877992 0.00877992
0.0112381 0.00884829 0.00872272
0.00747095 0.0100403 -2.87065e-05
0.0112637 0.00129809 0.00117518
0.00136668 0.0100056 0.00877393
0.00985964 0.00883762 0.00994867
0.0112542 0.00507242 0.00994061
0 0 0.00333333
0.00750416 4.77944e-05 -2.93127e-05
0.0098888 6.7803e-05 0.00118086
0.00136084 6.05069e-06 0.0012058
0 0.00877992 0.00122008
0.00136611 0.00878572 -5.51669e-06
0.00135622 0.0100056 0.00120621
0.0112679 0.00129701 0.00872252
0.00988929 0.0012853 0.00994885
0.00750913 4.68929e-05 0.0099631
0.00988378 0.00128662 -3.76232e-05
0.00989294 6.69265e-05 0.00872993
0.0112556 0.00340881 -4.30399e-05
0.00373538 0.0100177 0.00998282
0.0027512 0.0100123 0.00134515
0.00747685 0.0100398 0.00996248
0.0112609 0.003408 0.00994086
0 0.01 0.005
0.00293812 0.00850038 -1.16296e-05
0.0112323 0.0100654 0.00494911
0 0.01 0.00333333
0 0.00166667 0
0.0112693 8.0105e-05 0.00162086
0 0.00166667 0.01
0 0.00833333 0
0.0112367 0.00840246 -4.26089e-05
0.0112731 7.93163e-05 0.00827652
0.0112311 0.0100661 0.00162133
0.0112348 0.0100657 0.00827645
0.00186703 0.0100081 0.00999199
0 0.01 0.00833333
0.00934748 0.0100525 -3.61272e-05
0.00938462 6.37361e-05 -3.60736e-05
0.00939002 6.26292e-05 0.00995207
0.00935268 0.0100527 0.00995174
0 0 0.00833333
0.0112414 0.00840226 0.00994068
0.00187331 9.34514e-06 -7.42974e-06
0 0 0.00166667
0.00373055 0.0100178 -1.46864e-05
0.0112678 0.001743 0.00994082
0.0112624 0.00174416 -4.3077e-05
0.00187396 8.87571e-06 0.00999206
0.00186488 0.0100081 -7.57186e-06
0 0.01 0.00166667
0.0112358 0.0100659 0.00994087
0 0 0.01
0.0112311 0.0100664 -4.28261e-05
0.0112746 7.9024e-05 0.00994116
0 0.01 0.01
0.0112693 8.04835e-05 -4.3411e-05
0 0.01 0
0 0 0
0.00559942 0.0100287 -2.15455e-05
0.00375162 1.95709e-05 0.0099832
0 0.00833333 0.01

CELLS 343 686
1 0
1 1
1 2
1 3
1 4
1 5
1 6
1 7
1 8
1 9
1 10
1 11
1 12
1 13
1 14
1 15
1 16
1 17
1 18
1 19
1 20
1 21
1 22
1 23
1 24
1 25
1 26
1 27
1 28
1 29
1 30
1 31
1 32
1 33
1 34
1 35
1 36
1 37
1 38
1 39
1 40
1 41
1 42
1 43
1 44
1 45
1 46
1 47
1 48
1 49
1 50
1 51
1 52
1 53
1 54
1 55
1 56
1 57
1 58
1 59
1 60
1 61
1 62
1 63
1 64
1 65
1 66
1 67
1 68
1 69
1 70
1 71
1 72
1 73
1 74
1 75
1 76
1 77
1 78
1 79
1 80
1 81
1 82
1 83
1 84
1 85
1 86
1 87
1 88
1 89
1 90
1 91
1 92
1 93
1 94
1 95
1 96
1 97
1 98
1 99
1 100
1 101
1 102
1 103
1 104
1 105
1 106
1 107
1 108
1 109
1 110
1 111
1 112
1 113
1 114
1 115
1 116
1 117
1 118
1 119
1 120
1 121
1 122
1 123
1 124
1 125
1 126
1 127
1 128
1 129
1 130
1 131
1 132
1 133
1 134
1 135
1 136
1 137
1 138
1 139
1 140
1 141
1 142
1 143
1 144
1 145
1 146
1 147
1 148
1 149
1 150
1 151
1 152
1 153
1 154
1 155
1 156
1 157
1 158
1 159
1 160
1 161
1 162
1 163
1 164
1 165
1 166
1 167
1 168
1 169
1 170
1 171
1 172
1 173
1 174
1 175
1 176
1 177
1 178
1 179
1 180
1 181
1 182
1 183
1 184
1 185
1 186
1 187
1 188
1 189
1 190
1 191
1 192
1 193
1 194
1 195
1 196
1 197
1 198
1 199
1 200
1 201
1 202
1 203
1 204
1 205
1 206
1 207
1 208
1 209
1 210
1 211
1 212
1 213
1 214
1 215
1 216
1 217
1 218
1 219
1 220
1 221
1 222
1 223
1 224
1 225
1 226
1 227
1 228
1 229
1 230
1 231
1 232
1 233
1 234
1 235
1 236
1 237
1 238
1 239
1 240
1 241
1 242
1 243
1 244
1 245
1 246
1 247
1 248
1 249
1 250
1 251
1 252
1 253
1 254
1 255
1 256
1 257
1 258
1 259
1 260
1 261
1 262
1 263
1 264
1 265
1 266
1 267
1 268
1 269
1 270
1 271
1 272
1 273
1 274
1 275
1 276
1 277
1 278
1 279
1 280
1 281
1 282
1 283
1 284
1 285
1 286
1 287
1 288
1 289
1 290
1 291
1 292
1 293
1 294
1 295
1 296
1 297
1 298
1 299
1 300
1 301
1 302
1 303
1 304
1 305
1 306
1 307
1 308
1 309
1 310
1 311
1 312
1 313
1 314
1 315
1 316
1 317
1 318
1 319
1 320
1 321
1 322
1 323
1 324
1 325
1 326
1 327
1 328
1 329
1 330
1 331
1 332
1 333
1 334
1 335
1 336
1 337
1 338
1 339
1 340
1 341
1 342

CELL_TYPES 343
1
1
1
1
1
1
1
1
1
1
1
1
1
1
1
1
1
1
1
1
1
1
1
1
1
1
1
1
1
1
1
1
1
1
1
1
1
1
1
1
1
1
1
1
1
1
1
1
1
1
1
1
1
1
1
1
1
1
1
1
1
1
1
1
1
1
1
1
1
1
1
1
1
1
1
1
1
1
1
1
1
1
1
1
1
1
1
1
1
1
1
1
1
1
1
1
1
1
1
1
1
1
1
1
1
1
1
1
1
1
1
1
1
1
1
1
1
1
1
1
1
1
1
1
1
1
1
1
1
1
1
1
1
1
1
1
1
1
1
1
1
1
1
1
1
1
1
1
1
1
1
1
1
1
1
1
1
1
1
1
1
1
1
1
1
1
1
1
1
1
1
1
1
1
1
1
1
1
1
1
1
1
1
1
1
1
1
1
1
1
1
1
1
1
1
1
1
1
1
1
1
1
1
1
1
1
1
1
1
1
1
1
1
1
1
1
1
1
1
1
1
1
1
1
1
1
1
1
1
1
1
1
1
1
1
1
1
1
1
1
1
1
1
1
1
1
1
1
1
1
1
1
1
1
1
1
1
1
1
1
1
1
1
1
1
1
1
1
1
1
1
1
1
1
1
1
1
1
1
1
1
1
1
1
1
1
1
1
1
1
1
1
1
1
1
1
1
1
1
1
1
1
1
1
1
1
1
1
1
1
1
1
1
1
1
1
1
1
1
1
1
1
1
1
1
1
1
1
1
1
1
1
1
1
1
1
1
1
1
1
1
1
1

POINT_DATA 343
FIELD FieldData 3

ExternalForceID_(#) 1 343 int
0
1
2
3
4
5
6
7
8
9
10
11
12
13
14
15
16
17
18
19
20
21
22
23
24
25
26
27
28
29
30
31
32
33
34
35
36
37
38
39
40
41
42
43
44
45
46
47
48
49
50
51
52
53
54
55
56
57
58
59
60
61
62
63
64
65
66
67
68
69
70
71
72
73
74
75
76
77
78
79
80
81
82
83
84
85
86
87
88
89
90
91
92
93
94
95
96
97
98
99
100
101
102
103
104
105
106
107
108
109
110
111
112
113
114
115
116
117
118
119
120
121
122
123
124
125
126
127
128
129
130
131
132
133
134
135
136
137
138
139
140
141
142
143
144
145
146
147
148
149
150
151
152
153
154
155
156
157
158
159
160
161
162
163
164
165
166
167
168
169
170
171
172
173
174
175
176
177
178
179
180
181
182
183
184
185
186
187
188
189
190
191
192
193
194
195
196
197
198
199
200
201
202
203
204
205
206
207
208
209
210
211
212
213
214
215
216
217
218
219
220
221
222
223
224
225
226
227
228
229
230
231
232
233
234
235
236
237
238
239
240
241
242
243
244
245
246
247
248
249
250
251
252
253
254
255
256
257
258
259
260
261
262
263
264
265
266
267
268
269
270
271
272
273
274
275
276
277
278
279
280
281
282
283
284
285
286
287
288
289
290
291
292
293
294
295
296
297
298
299
300
301
302
303
304
305
306
307
308
309
310
311
312
313
314
315
316
317
318
319
320
321
322
323
324
325
326
327
328
329
330
331
332
333
334
335
336
337
338
339
340
341
342

ExternalForceType_(0/1/2/3/4) 1 343 int
0
0
0
0
0
0
0
0
0
0
0
0
0
0
0
0
0
0
0
0
0
0
0
0
0
0
0
0
0
0
0
0
0
0
0
0
0
0
0
0
0
0
0
0
0
0
0
0
0
0
0
0
0
0
0
0
0
0
0
0
0
0
0
0
0
0
0
0
0
0
0
0
0
0
0
0
0
0
0
0
0
0
0
0
0
0
0
0
0
0
0
0
0
0
0
0
0
0
0
0
0
0
0
0
0
0
0
0
0
0
0
0
0
0
0
0
0
0
0
0
0
0
0
0
0
0
0
0
0
0
0
0
0
0
0
0
0
0
0
0
0
0
0
0
0
0
0
0
0
0
0
0
0
0
0
0
0
0
0
0
0
0
0
0
0
0
0
0
0
0
0
0
0
0
0
0
0
0
0
0
0
0
0
0
0
0
0
0
0
0
0
0
0
0
0
0
0
0
0
0
0
0
0
0
0
0
0
0
0
0
0
0
0
0
0
0
0
0
0
0
0
0
0
0
0
0
0
0
0
0
0
0
0
0
0
0
0
0
0
0
0
0
0
0
0
0
0
0
0
0
0
0
0
0
0
0
0
0
0
0
0
0
0
0
0
0
0
0
0
0
0
0
0
0
0
0
0
0
0
0
0
0
0
0
0
0
0
0
0
0
0
0
0
0
0
0
0
0
0
0
0
0
0
0
0
0
0
0
0
0
0
0
0
0
0
0
0
0
0
0
0
0
0
0
0
0
0
0
0
0
0
0
0
0
0
0
0
0
0
0
0
0
0

ExternalForce_(N) 3 343 double
0 -3.09568e-05 0
0 -0.000138619 0
0 -2.16714e-05 0
0 -0.000168226 0
0 -8.26002e-05 0
0 -8.9203e-05 0
0 -9.74165e-05 0
0 -7.37906e-05 0
0 -6.68156e-05 0
0 -5.47617e-05 0
0 -3.04981e-05 0
0 -0.000105531 0
0 -4.77758e-05 0
0 -0.000161821 0
0 -2.96713e-05 0
0 -7.9067e-05 0
0 -6.57564e-05 0
0 -0.000106704 0
0 -4.11017e-05 0
0 -8.006e-05 0
0 -6.02474e-05 0
0 -0.000115662 0
0 -2.18875e-05 0
0 -4.17098e-05 0
0 -0.000107827 0
0 -7.27379e-05 0
0 -4.13856e-05 0
0 -3.85027e-05 0
0 -3.029e-05 0
0 -0.000128774 0
0 -7.57947e-05 0
0 -0.000162261 0
0 -0.000116775 0
0 -7.15802e-05 0
0 -3.74431e-05 0
0 -0.000108892 0
0 -3.74072e-05 0
0 -0.000136493 0
0 -6.25303e-05 0
0 -7.85756e-05 0
0 -7.52544e-05 0
0 -0.000116589 0
0 -0.000160874 0
0 -2.73339e-05 0
0 -8.7662e-05 0
0 -2.53184e-05 0
0 -7.42972e-05 0
0 -4.15199e-05 0
0 -0.000128792 0
0 -3.72945e-05 0
0 -2.72189e-05 0
0 -7.03157e-05 0
0 -0.000119003 0
0 -5.02041e-05 0
0 -8.04153e-05 0
0 -4.4939e-05 0
0 -2.74192e-05 0
0 -3.19929e-05 0
0 -4.04607e-05 0
0 -2.07889e-05 0
0 -3.28809e-05 0
0 -3.54797e-05 0
0 -0.000153858 0
0 -7.19739e-05 0
0 -8.09026e-05 0
0 -4.90862e-05 0
0 -2.77255e-05 0
0 -7.06591e-05 0
0 -3.20606e-05 0
0 -4.10794e-05 0
0 -1.98932e-05 0
0 -2.37551e-05 0
0 -3.0591e-05 0
0 -5.86107e-05 0
0 -5.75946e-05 0
0 -4.01595e-05 0
0 -5.35099e-05 0
0 -2.24477e-05 0
0 -4.41213e-05 0
0 -4.29866e-05 0
0 -4.42325e-05 0
0 -4.30889e-05 0
0 -4.19155e-05 0
0 -5.21923e-05 0
0 -1.5029e-05 0
0 -2.34331e-05 0
0 -1.9903e-05 0
0 -4.30461e-05 0
0 -3.11931e-05 0
0 -3.08326e-05 0
0 -4.52797e-05 0
0 -5.7648e-05 0
0 -8.02544e-05 0
0 -2.43623e-05 0
0 -0.000150893 0
0 -3.43039e-05 0
0 -7.21258e-05 0
0 -1.97489e-05 0
0 -2.00202e-05 0
0 -7.83017e-05 0
0 -4.32908e-05 0
0 -7.00326e-05 0
0 -1.17841e-05 0
0 -4.93779e-05 0
0 -1.58193e-05 0
0 -4.04762e-05 0
0 -8.57147e-05 0
0 -4.2953e-05 0
0 -7.82027e-05 0
0 -2.09499e-05 0
0 -3.31713e-05 0
0 -9.30599e-05 0
0 -7.26197e-05 0
0 -1.76801e-05 0
0 -2.06228e-05 0
0 -7.8371e-05 0
0 -1.84411e-05 0
0 -7.30662e-05 0
0 -4.11806e-05 0
0 -2.3265e-05 0
0 -4.23503e-05 0
0 -5.94919e-05 0
0 -4.22718e-05 0
0 -2.12723e-05 0
0 -1.86252e-05 0
0 -1.77849e-05 0
0 -3.82356e-05 0
0 -2.39658e-05 0
0 -1.62481e-05 0
0 -7.86148e-05 0
0 -1.61387e-05 0
0 -2.34763e-05 0
0 -2.95637e-05 0
0 -2.93742e-05 0
0 -1.33947e-05 0
0 -1.83735e-05 0
0 -2.05639e-05 0
0 -1.91062e-05 0
0 -1.84053e-05 0
0 -6.25793e-05 0
0 -4.49914e-05 0
0 -1.98914e-05 0
0 -1.58922e-05 0
0 -2.367e-05 0
0 -3.81266e-05 0
0 -4.36518e-05 0
0 -2.25472e-05 0
0 -0.000115119 0
0 -3.05886e-05 0
0 -1.32828e-05 0
0 -3.38507e-05 0
0 -1.78391e-05 0
0 -2.88237e-05 0
0 -1.34771e-05 0
0 -2.36876e-05 0
0 -2.06453e-05 0
0 -2.58912e-05 0
0 -2.10097e-05 0
0 -1.7602e-05 0
0 -3.13896e-05 0
0 -1.34386e-05 0
0 -2.38863e-05 0
0 -2.04203e-05 0
0 -1.33426e-05 0
0 -2.13076e-05 0
0 -1.86316e-05 0
0 -3.10974e-05 0
0 -2.56228e-05 0
0 -2.33161e-05 0
0 -1.57181e-05 0
0 -1.87061e-05 0
0 -5.38771e-05 0
0 -1.84308e-05 0
0 -3.08341e-05 0
0 -2.91652e-05 0
0 -1.16203e-05 0
0 -1.85667e-05 0
0 -2.00287e-05 0
0 -2.68375e-05 0
0 -2.37799e-05 0
0 -3.16945e-05 0
0 -3.13676e-05 0
0 -3.15313e-05 0
0 -1.90796e-05 0
0 -1.58134e-05 0
0 -1.83326e-05 0
0 -3.16308e-05 0
0 -2.07128e-05 0
0 -2.91276e-05 0
0 -6.03597e-05 0
0 -2.26581e-05 0
0 -2.35174e-05 0
0 -2.33506e-05 0
0 -2.59482e-05 0
0 -1.63393e-05 0
0 -1.78912e-05 0
0 -2.02658e-05 0
0 -5.62379e-05 0
0 -2.04507e-05 0
0 -2.14176e-05 0
0 -2.38895e-05 0
0 -3.05955e-05 0
0 -3.11287e-05 0
0 -2.01544e-05 0
0 -1.92198e-05 0
0 -2.99909e-05 0
0 -6.32085e-05 0
0 -2.04829e-05 0
0 -2.67435e-05 0
0 -2.11611e-05 0
0 -1.83262e-05 0
0 -1.96474e-05 0
0 -2.0699e-05 0
0 -2.83503e-05 0
0 -2.27807e-05 0
0 -2.35234e-05 0
0 -1.93874e-05 0
0 -6.29086e-05 0
0 -2.12117e-05 0
0 -3.22943e-05 0
0 -2.06229e-05 0
0 -2.61501e-05 0
0 -1.90721e-05 0
0 -2.86319e-05 0
0 -2.53212e-05 0
0 -2.07681e-05 0
0 -2.05553e-05 0
0 -1.88077e-05 0
0 -6.92631e-05 0
0 -2.20924e-05 0
0 -2.02457e-05 0
0 -6.16224e-05 0
0 -2.08117e-05 0
0 -2.85397e-05 0
0 -2.08875e-05 0
0 -6.32617e-05 0
0 -1.39008e-05 0
0 -2.0289e-05 0
0 -6.45558e-05 0
0 -2.47785e-05 0
0 -2.35177e-05 0
0 -7.28089e-06 0
0 -2.18143e-05 0
0 -6.93323e-06 0
0 -6.87344e-06 0
0 -8.76768e-06 0
0 -2.48719e-05 0
0 -2.22231e-05 0
0 -1.31068e-05 0
0 -7.69816e-06 0
0 -2.27889e-05 0
0 -5.95166e-06 0
0 -6.55579e-06 0
0 -6.71305e-06 0
0 -2.46468e-05 0
0 -2.27228e-05 0
0 -7.6878e-06 0
0 -6.67903e-06 0
0 -6.10861e-05 0
0 -6.6189e-06 0
0 -6.52665e-06 0
0 -6.87836e-06 0
0 -1.78856e-05 0
0 -1.87072e-05 0
0 -6.73674e-06 0
0 -6.91401e-06 0
0 -1.82903e-05 0
0 -2.2423e-05 0
0 -6.67521e-06 0
0 -7.02401e-06 0
0 -1.78908e-05 0
0 -5.89658e-06 0
0 -1.98938e-05 0
0 -7.3162e-06 0
0 -5.63509e-06 0
0 -1.76631e-05 0
0 -1.42638e-05 0
0 -2.22707e-05 0
0 -1.77204e-05 0
0 -2.11264e-05 0
0 -1.75686e-05 0
0 -1.76047e-05 0
0 -6.69346e-06 0
0 -2.20467e-05 0
0 -1.42479e-05 0
0 -1.76144e-05 0
0 -6.84615e-06 0
0 -6.12404e-06 0
0 -6.50125e-06 0
0 -1.41879e-05 0
0 -1.37476e-05 0
0 -2.11168e-05 0
0 -1.79377e-05 0
0 -1.37282e-05 0
0 -1.41198e-05 0
0 -2.15061e-05 0
0 -6.84475e-06 0
0 -1.74349e-05 0
0 -1.75758e-05 0
0 -6.41828e-06 0
0 -7.20025e-06 0
0 -2.30432e-05 0
0 -6.96894e-06 0
0 -6.44499e-06 0
0 -6.14414e-06 0
0 -2.14766e-05 0
0 -6.00855e-06 0
0 -5.92427e-06 0
0 -5.81567e-06 0
0 -5.02303e-06 0
0 -5.01945e-06 0
0 -4.85271e-06 0
0 -4.87573e-06 0
0 -4.8684e-06 0
0 -5.22951e-06 0
0 -4.84801e-06 0
0 -4.88396e-06 0
0 -4.77612e-06 0
0 -4.81304e-06 0
0 -4.85251e-06 0
0 -4.8555e-06 0
0 -4.82575e-06 0
0 -4.80313e-06 0
0 -4.86923e-06 0
0 -4.85781e-06 0
0 -4.73027e-06 0
0 -1.08748e-05 0
0 -5.22863e-06 0
0 -5.34413e-06 0
0 -5.26459e-06 0
0 -5.05624e-06 0
0 -4.92238e-06 0
0 -5.43253e-06 0
0 -5.43253e-06 0
0 -5.43253e-06 0
0 -5.43253e-06 0
0 -5.43253e-06 0
0 -5.43253e-06 0
0 -5.40321e-06 0
0 -5.40321e-06 0
0 -7.3113e-06 0
0 -6.98147e-06 0
0 -4.8949e-06 0

