# vtk DataFile Version 4.2
vtk output
ASCII
DATASET UNSTRUCTURED_GRID

POINTS 343 double
0.00112235 0.00419497 7.69498e-08
0.00217074 0.00498266 0.0021753
0 0.00419538 0.00112517
0.00193026 0.00195462 0.0019421
0.00517086 0.00240847 0.00503173
0.00517296 0.00383134 0.006397
0.0076223 0.00477841 0.00499764
0.00622394 0.00485233 0.00369098
0.00683769 0.00329119 0.0069129
0.00499078 0.00499364 0.00499937
0.00418286 0.00111948 0.00999859
0.00528322 0.00208204 0.00790341
0.00419316 -5.95258e-06 0.00831676
0.00201289 0.00200262 0.00803317
0.00428796 0.00253397 0.00999858
0.00695552 0.00644906 0.00694582
0.00641247 0.00618434 0.00518222
0.00226098 0.00218483 0.00514605
0 0.00143586 0.00417514
0.00159461 0.0034662 0.00403704
0.0068376 0.0031966 0.00316045
0.00774729 0.00221658 0.00506255
0 0.00270918 0.00154168
0.00415885 0.0014299 -2.68806e-07
0.00500867 0.00218949 0.00219731
0.00396224 0.00352748 0.00160269
0.00134591 -5.23628e-07 0.00405999
0.00418515 -6.30635e-06 0.00168776
0.00262503 0.00695188 -2.58086e-08
0.00193754 0.00805282 0.00194485
0.00408628 0.00624865 0.00164468
0.00800076 0.00798903 0.00799566
0.00796546 0.00481875 0.00802069
0.00838703 0.006083 0.00594625
0.00999434 0.00883026 0.00418959
0.0075741 0.00763841 0.00496238
0.00856157 0.00998373 0.0041648
0.00797234 0.0079742 0.00201441
0.00353678 0.00303713 0.0069593
0.00443846 0.0036628 0.00832347
0.00389394 0.00160157 0.00596878
0.00500431 0.00766942 0.00767605
0.00198928 0.008008 0.00798961
0.00282601 0.00999771 0.00712709
0.00391511 0.00840023 0.00595759
0 0.00695361 0.00262895
0.00164621 0.00623935 0.00408787
0 0.0040177 0.00850214
0.002315 0.00498586 0.00766144
0.00143344 0.00417454 0.00999993
0.00717419 0.00712048 0.00999641
0.00611801 0.0059724 0.00841632
0.00205136 0.00794151 0.00474181
0.00304321 0.00694315 0.0064676
0.00158677 0.00607842 0.00592599
0.00998864 0.00578839 0.00831213
0 0.00718191 0.00711644
0.00158409 0.00577353 1.54127e-08
0 0.00577432 0.00158701
0.00999177 0.00716207 0.00711159
0.00286831 0.00334967 0.00999941
0.00997228 0.00141441 0.00417161
0.00803734 0.00194664 0.0019773
0.00838966 0.00350576 0.00399647
0.00372709 0.00164899 0.00412811
0.00150871 0.00999971 0.00581502
0.00281152 -2.89456e-06 0.00712757
0.00611095 0.00417323 0.0083748
0.00998961 0.00725413 0.00419188
0.00853213 -1.76688e-05 0.00416552
0.00334131 0.00287026 -1.37236e-07
0.00270172 0.00153935 0.00999946
0.00281999 -3.23027e-06 0.00283191
0.00479816 0.00519501 0.00755361
0.0031584 0.00314669 0.00316723
0 0.00849157 0.00581511
0.00486506 0.00367068 0.0037857
0.00153694 0.00270871 1.99232e-08
0.00579856 0.0083176 0.00999734
0.00598209 0.00999119 0.00850382
0.00421226 0.00999506 0.00831679
0.00401708 0.00849919 0.00999846
0.00999461 0.00847152 0.00581062
0.00314662 0.00683384 0.00315073
0 0.00748929 0.00137438
0.00137282 0.00748899 1.56066e-08
0 0.00287343 0.00335182
0 0.00580816 0.00831736
0 0.00429792 0.00253898
0.00253282 0.00429617 6.16834e-09
0.00143394 0.00581921 0.00999993
0.00517458 0.00646972 0.00639945
0.00360319 0.00650975 0.00823348
0.00693544 0.00261575 0.00999675
0.00800279 0.00194342 0.00803235
0.00694493 -1.32508e-05 0.00308059
0.00600246 0.00165476 0.00361183
0.00997582 0.00285257 0.00334849
0 0.00140616 0.00256446
0.00637109 0.00821868 0.00641933
0.00579749 0.00142564 -5.64607e-07
0.00602185 0.00354299 0.00160221
0.0031554 0.00999707 0.00582496
0.00855758 0.0099839 0.00582989
0.00255424 0.00140357 -1.09799e-09
0.00595239 -1.05907e-05 0.0014935
0.00627714 0.00827867 0.003616
0.00852819 -1.75242e-05 0.00583037
0.00618927 0.00166296 0.00636379
0.00140268 0.00256408 0.00999998
0.00710714 0.00717024 -1.56973e-06
0.00516245 0.00768354 0.00216812
0.00593413 0.00608538 0.00160082
0 0.00686719 0.00578184
0.00997088 0.00138454 0.00256141
0.0017724 0.00360997 0.00640781
0.00999203 0.00846659 0.00262013
0.00840133 0.00617399 0.00413018
0.00597799 0.00999064 0.00149262
0.00694634 -1.29726e-05 0.00692439
0.00997365 0.00141419 0.00581556
0.00838051 0.00355767 0.00605786
0.0015025 -6.49811e-07 0.00581518
0 0.0013659 0.00748679
0.00136432 -5.2914e-07 0.00752891
0.0099897 0.00684728 0.00577744
0.00581088 0.00848294 -1.06806e-06
0 0.0075208 0.00859127
0.0013651 0.00748648 0.00999986
0.00422898 0.00820117 0.00362787
0.00859177 0.00998382 0.00750824
0.0099965 0.0086103 0.00752129
0.00575872 0.00157782 0.00999754
0.00724749 0.00417619 0.00999648
0 0.0057735 0.00666667
0.00136982 0.00999965 0.0075289
0 0.00863025 0.00752641
0.00855748 -1.79939e-05 0.00250528
0.0099874 0.00693341 0.00262547
0.00844739 0.00632654 0.00216057
0.00850074 0.00580858 0.00999551
0.00747 0.00136041 0.00999627
0.00856228 -1.76531e-05 0.00750843
0.0099748 0.00134467 0.00748199
0 0.00143551 0.00581971
0.0059567 -1.01685e-05 0.00850381
0.00419557 -6.30552e-06 0.00339959
0.00791863 0.00469354 0.00203255
0.00997937 0.00427749 0.00253575
0.00422927 0.0099949 0.00666577
0.00283462 0.00999777 0.0028318
0.00130746 -5.70134e-07 0.0024183
0 0.00727418 0.00419576
0.00998715 0.00575366 0.006662
0.00697239 0.0099881 0.00307983
0.00750674 0.00862434 0.00999613
0 0.00574334 0.00336387
0 0.0043297 0.00416652
0.00686265 0.00577375 0.00999675
0.00997918 0.00300162 0.00691066
0.00420902 -6.10461e-06 0.00666608
0.00247936 0.00999804 0.00861122
0.0074603 0.00135142 -1.28908e-06
0.00577043 0.00665917 0.00999736
0.00999404 0.00750104 0.00858587
0.00860453 0.00753806 0.00999536
0.00689451 0.00301021 -1.0375e-06
0.00335747 0.0057408 -8.63003e-08
0.00752042 0.00861702 -1.91994e-06
0.00751318 0.00998634 0.0013853
0.00577367 0.00685918 -9.92207e-07
0.00696569 0.00635983 0.00303177
0.00748498 -1.50479e-05 0.00138626
0.00288089 0.00499742 0.00999932
0.00432607 0.00582936 0.00999837
0.00432269 0.00416233 0.00999842
0.0075184 0.00998685 0.00861249
0.00246677 -2.41266e-06 0.0086114
0.00998427 0.00572326 0.00336036
0 0.00302218 0.00691532
0.00998341 0.0039976 0.00849691
0.008481 0.00400141 -1.92689e-06
0.00997391 0.00268804 0.00153883
0 0.00244495 0.00857025
0.00244566 0.00856854 0.00999931
0.00749025 -1.45874e-05 0.00861246
0.00846956 0.00260771 0.00999554
0.00883761 0.00417721 0.00999525
0.00567216 0.00999169 0.00583191
0.00518306 0.00757715 0.00503142
0.0056435 0.00999164 0.00421404
0.00697372 0.00998839 0.00692409
0.00302074 0.00691356 0.00999908
0.00415602 0.00432543 -2.18125e-07
0.00282308 -3.32045e-06 0.00440461
0.00313973 -3.69022e-06 0.00582534
0.00997799 0.00417473 0.00112225
0.0036358 0.00833391 0.0015879
0.00998078 0.00430938 0.00416284
0.00665404 0.00576312 -1.13467e-06
0.00858703 0.00998346 0.00250434
0 0.00848692 0.00262374
0.00135152 0.0099997 0.00405988
0 0.00885053 0.00419359
0.00419159 0.00884538 -4.82647e-07
0.00420514 0.00999475 0.00168718
0.004989 0.00478557 0.00237824
0.00720236 0.00450942 -1.27114e-06
0.00561917 -9.70928e-06 0.00421473
0.0056479 -9.64119e-06 0.0058323
0.00131293 0.00999972 0.00241808
0.00854438 0.00242788 -1.85249e-06
0.00998387 0.0045017 0.00721476
0.00711563 0.00998789 0.00499804
0.00573223 0.00335599 0.00999757
0.00244681 -2.64423e-06 0.00135658
0.00997881 0.0024242 0.00856507
0.00239159 0.00478998 0.00499983
0.00581849 0.00432172 -6.91305e-07
0.00830187 0.00579278 -2.07164e-06
0.00548177 0.00999228 0.00721883
0.00998214 0.00430994 0.00582904
0.00540309 0.0099921 0.00277459
0.00708794 -1.34668e-05 0.00499864
0.00283731 0.00999777 0.00440425
0 0.00452174 0.00721958
0.00451989 0.00721546 0.00999821
0.00545793 -9.01582e-06 0.00721885
0.00359753 0.00507098 0.00359632
0.00425351 0.00999486 0.00500755
0.00423273 -6.25456e-06 0.00500813
0.00366608 0.00521396 0.00617421
0 0.005744 0.00499998
0 0.00433013 0.00583333
0.00499041 0.00573822 -5.04139e-07
0.0049788 0.00633345 0.00355313
0.00537919 -9.20247e-06 0.00277532
0.00998565 0.00572407 0.0049959
0.00368709 0.00640488 0.00484362
0.00573691 0.00499278 0.0099975
0.009983 0.00575405 0.00158389
0 0.00666667 0
0.00858045 0.00750471 -2.44847e-06
0.00331743 -4.84861e-06 3.19441e-07
0 0.01 0.00666667
0.00500453 0.0099932 0.009998
0 0.00288419 0.00499914
0.00998805 0.00746896 0.00137114
0.00998461 0.00664631 -3.23296e-06
0 0.005 0.01
0.00498298 0.00287732 -4.32781e-07
0 0.005 0
0.00996737 -2.20906e-05 0.00333019
0.00999993 0.00997951 0.00666177
0.00419062 0.0072698 -4.14964e-07
0.00997716 0.00286349 0.00499523
0.00497747 -8.64839e-06 -5.31663e-08
0 0 0.00666667
0.00379078 0.00361332 0.00522601
0.00498266 -8.25113e-06 0.00999773
0.00997009 -2.18788e-05 0.00666222
0 0 0.005
0.00877711 0.00998271 0.00121733
0.00999185 0.00875931 0.0012167
0.00996871 -2.19562e-05 0.00499623
0.00997963 0.00497936 -3.01211e-06
0.00121564 0.00121939 -1.1624e-08
0 0.00122008 0.00122008
0 0.00333333 0.01
0 0.00666667 0.01
0.00877264 0.00876287 -2.69735e-06
0.0099972 0.00997919 0.00332939
0.00421619 0.00999483 0.00339911
0.00999263 0.00664701 0.00999429
0 0.00333333 0
0 0.00122008 0.00877992
0.00121554 -6.59724e-07 0.00877971
0.00121654 0.0012196 0.0100001
0.00878307 0.00998325 0.00877544
0.00121983 0.00877953 0.00999987
0 0.00877992 0.00877992
0.00999804 0.00875994 0.00877445
0.00666535 0.00998856 -1.76529e-06
0.00996924 0.00119823 0.0012174
0.00122056 0.00999954 0.00878
0.00878053 0.00876362 0.00999523
0.00998762 0.00498015 0.00999432
0 0 0.00333333
0.00663846 -1.27754e-05 -6.17691e-07
0.00874745 -1.87112e-05 0.00121835
0.00120634 -7.18691e-07 0.00121197
0 0.00877992 0.00122008
0.00121927 0.00877944 7.28539e-08
0.00121154 0.00999958 0.00121142
0.00997537 0.00119873 0.00877457
0.00875799 0.00120227 0.00999523
0.00664518 -1.24089e-05 0.00999646
0.0087501 0.00120176 -1.8645e-06
0.00875349 -1.8276e-05 0.00877535
0.00997469 0.00331232 -2.81979e-06
0.00333685 0.0099964 0.00999914
0.00245974 0.00999823 0.0013562
0.00667185 0.00998923 0.00999689
0.00998263 0.00331306 0.00999433
0 0.01 0.005
0.00262208 0.00848494 -4.40539e-08
0.00999853 0.00997937 0.00499567
0 0.01 0.00333333
0 0.00166667 0
0.00996604 -2.22862e-05 0.00166402
0 0.00166667 0.01
0 0.00833333 0
0.0099897 0.0083127 -3.40273e-06
0.00997146 -2.19064e-05 0.00832804
0.0099959 0.00997901 0.00166309
0.0100013 0.00997955 0.00832796
0.0016683 0.00999878 0.00999977
0 0.01 0.00833333
0.00833032 0.00998386 -2.6024e-06
0.00830099 -1.7624e-05 -1.48516e-06
0.00830869 -1.71927e-05 0.00999533
0.00833782 0.00998445 0.00999559
0 0 0.00833333
0.00999772 0.00831347 0.00999425
0.00165852 -1.71711e-06 1.34061e-07
0 0 0.00166667
0.00333417 0.00999646 -3.14303e-07
0.00997769 0.00164543 0.00999428
0.00996972 0.00164486 -2.68776e-06
0.00166016 -1.39534e-06 0.00999987
0.00166716 0.009999 -2.39077e-08
0 0.01 0.00166667
0.0100027 0.00997962 0.00999429
0 0 0.01
0.0099947 0.00997882 -3.63494e-06
0.00997278 -2.20189e-05 0.00999408
0 0.01 0.01
0.00996479 -2.24148e-05 -2.4874e-06
0 0.01 0
0 0 0
0.00499991 0.00999276 -9.38648e-07
0.00332107 -4.41967e-06 0.00999876
0 0.00833333 0.01

CELLS 343 686
1 0
1 1
1 2
1 3
1 4
1 5
1 6
1 7
1 8
1 9
1 10
1 11
1 12
1 13
1 14
1 15
1 16
1 17
1 18
1 19
1 20
1 21
1 22
1 23
1 24
1 25
1 26
1 27
1 28
1 29
1 30
1 31
1 32
1 33
1 34
1 35
1 36
1 37
1 38
1 39
1 40
1 41
1 42
1 43
1 44
1 45
1 46
1 47
1 48
1 49
1 50
1 51
1 52
1 53
1 54
1 55
1 56
1 57
1 58
1 59
1 60
1 61
1 62
1 63
1 64
1 65
1 66
1 67
1 68
1 69
1 70
1 71
1 72
1 73
1 74
1 75
1 76
1 77
1 78
1 79
1 80
1 81
1 82
1 83
1 84
1 85
1 86
1 87
1 88
1 89
1 90
1 91
1 92
1 93
1 94
1 95
1 96
1 97
1 98
1 99
1 100
1 101
1 102
1 103
1 104
1 105
1 106
1 107
1 108
1 109
1 110
1 111
1 112
1 113
1 114
1 115
1 116
1 117
1 118
1 119
1 120
1 121
1 122
1 123
1 124
1 125
1 126
1 127
1 128
1 129
1 130
1 131
1 132
1 133
1 134
1 135
1 136
1 137
1 138
1 139
1 140
1 141
1 142
1 143
1 144
1 145
1 146
1 147
1 148
1 149
1 150
1 151
1 152
1 153
1 154
1 155
1 156
1 157
1 158
1 159
1 160
1 161
1 162
1 163
1 164
1 165
1 166
1 167
1 168
1 169
1 170
1 171
1 172
1 173
1 174
1 175
1 176
1 177
1 178
1 179
1 180
1 181
1 182
1 183
1 184
1 185
1 186
1 187
1 188
1 189
1 190
1 191
1 192
1 193
1 194
1 195
1 196
1 197
1 198
1 199
1 200
1 201
1 202
1 203
1 204
1 205
1 206
1 207
1 208
1 209
1 210
1 211
1 212
1 213
1 214
1 215
1 216
1 217
1 218
1 219
1 220
1 221
1 222
1 223
1 224
1 225
1 226
1 227
1 228
1 229
1 230
1 231
1 232
1 233
1 234
1 235
1 236
1 237
1 238
1 239
1 240
1 241
1 242
1 243
1 244
1 245
1 246
1 247
1 248
1 249
1 250
1 251
1 252
1 253
1 254
1 255
1 256
1 257
1 258
1 259
1 260
1 261
1 262
1 263
1 264
1 265
1 266
1 267
1 268
1 269
1 270
1 271
1 272
1 273
1 274
1 275
1 276
1 277
1 278
1 279
1 280
1 281
1 282
1 283
1 284
1 285
1 286
1 287
1 288
1 289
1 290
1 291
1 292
1 293
1 294
1 295
1 296
1 297
1 298
1 299
1 300
1 301
1 302
1 303
1 304
1 305
1 306
1 307
1 308
1 309
1 310
1 311
1 312
1 313
1 314
1 315
1 316
1 317
1 318
1 319
1 320
1 321
1 322
1 323
1 324
1 325
1 326
1 327
1 328
1 329
1 330
1 331
1 332
1 333
1 334
1 335
1 336
1 337
1 338
1 339
1 340
1 341
1 342

CELL_TYPES 343
1
1
1
1
1
1
1
1
1
1
1
1
1
1
1
1
1
1
1
1
1
1
1
1
1
1
1
1
1
1
1
1
1
1
1
1
1
1
1
1
1
1
1
1
1
1
1
1
1
1
1
1
1
1
1
1
1
1
1
1
1
1
1
1
1
1
1
1
1
1
1
1
1
1
1
1
1
1
1
1
1
1
1
1
1
1
1
1
1
1
1
1
1
1
1
1
1
1
1
1
1
1
1
1
1
1
1
1
1
1
1
1
1
1
1
1
1
1
1
1
1
1
1
1
1
1
1
1
1
1
1
1
1
1
1
1
1
1
1
1
1
1
1
1
1
1
1
1
1
1
1
1
1
1
1
1
1
1
1
1
1
1
1
1
1
1
1
1
1
1
1
1
1
1
1
1
1
1
1
1
1
1
1
1
1
1
1
1
1
1
1
1
1
1
1
1
1
1
1
1
1
1
1
1
1
1
1
1
1
1
1
1
1
1
1
1
1
1
1
1
1
1
1
1
1
1
1
1
1
1
1
1
1
1
1
1
1
1
1
1
1
1
1
1
1
1
1
1
1
1
1
1
1
1
1
1
1
1
1
1
1
1
1
1
1
1
1
1
1
1
1
1
1
1
1
1
1
1
1
1
1
1
1
1
1
1
1
1
1
1
1
1
1
1
1
1
1
1
1
1
1
1
1
1
1
1
1
1
1
1
1
1
1
1
1
1
1
1
1
1
1
1
1
1
1
1
1
1
1
1
1
1
1
1
1
1
1
1
1
1
1
1
1

POINT_DATA 343
FIELD FieldData 3

ExternalForceID_(#) 1 343 int
0
1
2
3
4
5
6
7
8
9
10
11
12
13
14
15
16
17
18
19
20
21
22
23
24
25
26
27
28
29
30
31
32
33
34
35
36
37
38
39
40
41
42
43
44
45
46
47
48
49
50
51
52
53
54
55
56
57
58
59
60
61
62
63
64
65
66
67
68
69
70
71
72
73
74
75
76
77
78
79
80
81
82
83
84
85
86
87
88
89
90
91
92
93
94
95
96
97
98
99
100
101
102
103
104
105
106
107
108
109
110
111
112
113
114
115
116
117
118
119
120
121
122
123
124
125
126
127
128
129
130
131
132
133
134
135
136
137
138
139
140
141
142
143
144
145
146
147
148
149
150
151
152
153
154
155
156
157
158
159
160
161
162
163
164
165
166
167
168
169
170
171
172
173
174
175
176
177
178
179
180
181
182
183
184
185
186
187
188
189
190
191
192
193
194
195
196
197
198
199
200
201
202
203
204
205
206
207
208
209
210
211
212
213
214
215
216
217
218
219
220
221
222
223
224
225
226
227
228
229
230
231
232
233
234
235
236
237
238
239
240
241
242
243
244
245
246
247
248
249
250
251
252
253
254
255
256
257
258
259
260
261
262
263
264
265
266
267
268
269
270
271
272
273
274
275
276
277
278
279
280
281
282
283
284
285
286
287
288
289
290
291
292
293
294
295
296
297
298
299
300
301
302
303
304
305
306
307
308
309
310
311
312
313
314
315
316
317
318
319
320
321
322
323
324
325
326
327
328
329
330
331
332
333
334
335
336
337
338
339
340
341
342

ExternalForceType_(0/1/2/3/4) 1 343 int
0
0
0
0
0
0
0
0
0
0
0
0
0
0
0
0
0
0
0
0
0
0
0
0
0
0
0
0
0
0
0
0
0
0
0
0
0
0
0
0
0
0
0
0
0
0
0
0
0
0
0
0
0
0
0
0
0
0
0
0
0
0
0
0
0
0
0
0
0
0
0
0
0
0
0
0
0
0
0
0
0
0
0
0
0
0
0
0
0
0
0
0
0
0
0
0
0
0
0
0
0
0
0
0
0
0
0
0
0
0
0
0
0
0
0
0
0
0
0
0
0
0
0
0
0
0
0
0
0
0
0
0
0
0
0
0
0
0
0
0
0
0
0
0
0
0
0
0
0
0
0
0
0
0
0
0
0
0
0
0
0
0
0
0
0
0
0
0
0
0
0
0
0
0
0
0
0
0
0
0
0
0
0
0
0
0
0
0
0
0
0
0
0
0
0
0
0
0
0
0
0
0
0
0
0
0
0
0
0
0
0
0
0
0
0
0
0
0
0
0
0
0
0
0
0
0
0
0
0
0
0
0
0
0
0
0
0
0
0
0
0
0
0
0
0
0
0
0
0
0
0
0
0
0
0
0
0
0
0
0
0
0
0
0
0
0
0
0
0
0
0
0
0
0
0
0
0
0
0
0
0
0
0
0
0
0
0
0
0
0
0
0
0
0
0
0
0
0
0
0
0
0
0
0
0
0
0
0
0
0
0
0
0
0
0
0
0
0
0
0
0
0
0
0
0
0
0
0
0
0
0
0
0
0
0
0
0
0
0
0
0
0
0

ExternalForce_(N) 3 343 double
0 -3.09568e-05 0
0 -0.000138619 0
0 -2.16714e-05 0
0 -0.000168226 0
0 -8.26002e-05 0
0 -8.9203e-05 0
0 -9.74165e-05 0
0 -7.37906e-05 0
0 -6.68156e-05 0
0 -5.47617e-05 0
0 -3.04981e-05 0
0 -0.000105531 0
0 -4.77758e-05 0
0 -0.000161821 0
0 -2.96713e-05 0
0 -7.9067e-05 0
0 -6.57564e-05 0
0 -0.000106704 0
0 -4.11017e-05 0
0 -8.006e-05 0
0 -6.02474e-05 0
0 -0.000115662 0
0 -2.18875e-05 0
0 -4.17098e-05 0
0 -0.000107827 0
0 -7.27379e-05 0
0 -4.13856e-05 0
0 -3.85027e-05 0
0 -3.029e-05 0
0 -0.000128774 0
0 -7.57947e-05 0
0 -0.000162261 0
0 -0.000116775 0
0 -7.15802e-05 0
0 -3.74431e-05 0
0 -0.000108892 0
0 -3.74072e-05 0
0 -0.000136493 0
0 -6.25303e-05 0
0 -7.85756e-05 0
0 -7.52544e-05 0
0 -0.000116589 0
0 -0.000160874 0
0 -2.73339e-05 0
0 -8.7662e-05 0
0 -2.53184e-05 0
0 -7.42972e-05 0
0 -4.15199e-05 0
0 -0.000128792 0
0 -3.72945e-05 0
0 -2.72189e-05 0
0 -7.03157e-05 0
0 -0.000119003 0
0 -5.02041e-05 0
0 -8.04153e-05 0
0 -4.4939e-05 0
0 -2.74192e-05 0
0 -3.19929e-05 0
0 -4.04607e-05 0
0 -2.07889e-05 0
0 -3.28809e-05 0
0 -3.54797e-05 0
0 -0.000153858 0
0 -7.19739e-05 0
0 -8.09026e-05 0
0 -4.90862e-05 0
0 -2.77255e-05 0
0 -7.06591e-05 0
0 -3.20606e-05 0
0 -4.10794e-05 0
0 -1.98932e-05 0
0 -2.37551e-05 0
0 -3.0591e-05 0
0 -5.86107e-05 0
0 -5.75946e-05 0
0 -4.01595e-05 0
0 -5.35099e-05 0
0 -2.24477e-05 0
0 -4.41213e-05 0
0 -4.29866e-05 0
0 -4.42325e-05 0
0 -4.30889e-05 0
0 -4.19155e-05 0
0 -5.21923e-05 0
0 -1.5029e-05 0
0 -2.34331e-05 0
0 -1.9903e-05 0
0 -4.30461e-05 0
0 -3.11931e-05 0
0 -3.08326e-05 0
0 -4.52797e-05 0
0 -5.7648e-05 0
0 -8.02544e-05 0
0 -2.43623e-05 0
0 -0.000150893 0
0 -3.43039e-05 0
0 -7.21258e-05 0
0 -1.97489e-05 0
0 -2.00202e-05 0
0 -7.83017e-05 0
0 -4.32908e-05 0
0 -7.00326e-05 0
0 -1.17841e-05 0
0 -4.93779e-05 0
0 -1.58193e-05 0
0 -4.04762e-05 0
0 -8.57147e-05 0
0 -4.2953e-05 0
0 -7.82027e-05 0
0 -2.09499e-05 0
0 -3.31713e-05 0
0 -9.30599e-05 0
0 -7.26197e-05 0
0 -1.76801e-05 0
0 -2.06228e-05 0
0 -7.8371e-05 0
0 -1.84411e-05 0
0 -7.30662e-05 0
0 -4.11806e-05 0
0 -2.3265e-05 0
0 -4.23503e-05 0
0 -5.94919e-05 0
0 -4.22718e-05 0
0 -2.12723e-05 0
0 -1.86252e-05 0
0 -1.77849e-05 0
0 -3.82356e-05 0
0 -2.39658e-05 0
0 -1.62481e-05 0
0 -7.86148e-05 0
0 -1.61387e-05 0
0 -2.34763e-05 0
0 -2.95637e-05 0
0 -2.93742e-05 0
0 -1.33947e-05 0
0 -1.83735e-05 0
0 -2.05639e-05 0
0 -1.91062e-05 0
0 -1.84053e-05 0
0 -6.25793e-05 0
0 -4.49914e-05 0
0 -1.98914e-05 0
0 -1.58922e-05 0
0 -2.367e-05 0
0 -3.81266e-05 0
0 -4.36518e-05 0
0 -2.25472e-05 0
0 -0.000115119 0
0 -3.05886e-05 0
0 -1.32828e-05 0
0 -3.38507e-05 0
0 -1.78391e-05 0
0 -2.88237e-05 0
0 -1.34771e-05 0
0 -2.36876e-05 0
0 -2.06453e-05 0
0 -2.58912e-05 0
0 -2.10097e-05 0
0 -1.7602e-05 0
0 -3.13896e-05 0
0 -1.34386e-05 0
0 -2.38863e-05 0
0 -2.04203e-05 0
0 -1.33426e-05 0
0 -2.13076e-05 0
0 -1.86316e-05 0
0 -3.10974e-05 0
0 -2.56228e-05 0
0 -2.33161e-05 0
0 -1.57181e-05 0
0 -1.87061e-05 0
0 -5.38771e-05 0
0 -1.84308e-05 0
0 -3.08341e-05 0
0 -2.91652e-05 0
0 -1.16203e-05 0
0 -1.85667e-05 0
0 -2.00287e-05 0
0 -2.68375e-05 0
0 -2.37799e-05 0
0 -3.16945e-05 0
0 -3.13676e-05 0
0 -3.15313e-05 0
0 -1.90796e-05 0
0 -1.58134e-05 0
0 -1.83326e-05 0
0 -3.16308e-05 0
0 -2.07128e-05 0
0 -2.91276e-05 0
0 -6.03597e-05 0
0 -2.26581e-05 0
0 -2.35174e-05 0
0 -2.33506e-05 0
0 -2.59482e-05 0
0 -1.63393e-05 0
0 -1.78912e-05 0
0 -2.02658e-05 0
0 -5.62379e-05 0
0 -2.04507e-05 0
0 -2.14176e-05 0
0 -2.38895e-05 0
0 -3.05955e-05 0
0 -3.11287e-05 0
0 -2.01544e-05 0
0 -1.92198e-05 0
0 -2.99909e-05 0
0 -6.32085e-05 0
0 -2.04829e-05 0
0 -2.67435e-05 0
0 -2.11611e-05 0
0 -1.83262e-05 0
0 -1.96474e-05 0
0 -2.0699e-05 0
0 -2.83503e-05 0
0 -2.27807e-05 0
0 -2.35234e-05 0
0 -1.93874e-05 0
0 -6.29086e-05 0
0 -2.12117e-05 0
0 -3.22943e-05 0
0 -2.06229e-05 0
0 -2.61501e-05 0
0 -1.90721e-05 0
0 -2.86319e-05 0
0 -2.53212e-05 0
0 -2.07681e-05 0
0 -2.05553e-05 0
0 -1.88077e-05 0
0 -6.92631e-05 0
0 -2.20924e-05 0
0 -2.02457e-05 0
0 -6.16224e-05 0
0 -2.08117e-05 0
0 -2.85397e-05 0
0 -2.08875e-05 0
0 -6.32617e-05 0
0 -1.39008e-05 0
0 -2.0289e-05 0
0 -6.45558e-05 0
0 -2.47785e-05 0
0 -2.35177e-05 0
0 -7.28089e-06 0
0 -2.18143e-05 0
0 -6.93323e-06 0
0 -6.87344e-06 0
0 -8.76768e-06 0
0 -2.48719e-05 0
0 -2.22231e-05 0
0 -1.31068e-05 0
0 -7.69816e-06 0
0 -2.27889e-05 0
0 -5.95166e-06 0
0 -6.55579e-06 0
0 -6.71305e-06 0
0 -2.46468e-05 0
0 -2.27228e-05 0
0 -7.6878e-06 0
0 -6.67903e-06 0
0 -6.10861e-05 0
0 -6.6189e-06 0
0 -6.52665e-06 0
0 -6.87836e-06 0
0 -1.78856e-05 0
0 -1.87072e-05 0
0 -6.73674e-06 0
0 -6.91401e-06 0
0 -1.82903e-05 0
0 -2.2423e-05 0
0 -6.67521e-06 0
0 -7.02401e-06 0
0 -1.78908e-05 0
0 -5.89658e-06 0
0 -1.98938e-05 0
0 -7.3162e-06 0
0 -5.63509e-06 0
0 -1.76631e-05 0
0 -1.42638e-05 0
0 -2.22707e-05 0
0 -1.77204e-05 0
0 -2.11264e-05 0
0 -1.75686e-05 0
0 -1.76047e-05 0
0 -6.69346e-06 0
0 -2.20467e-05 0
0 -1.42479e-05 0
0 -1.76144e-05 0
0 -6.84615e-06 0
0 -6.12404e-06 0
0 -6.50125e-06 0
0 -1.41879e-05 0
0 -1.37476e-05 0
0 -2.11168e-05 0
0 -1.79377e-05 0
0 -1.37282e-05 0
0 -1.41198e-05 0
0 -2.15061e-05 0
0 -6.84475e-06 0
0 -1.74349e-05 0
0 -1.75758e-05 0
0 -6.41828e-06 0
0 -7.20025e-06 0
0 -2.30432e-05 0
0 -6.96894e-06 0
0 -6.44499e-06 0
0 -6.14414e-06 0
0 -2.14766e-05 0
0 -6.00855e-06 0
0 -5.92427e-06 0
0 -5.81567e-06 0
0 -5.02303e-06 0
0 -5.01945e-06 0
0 -4.85271e-06 0
0 -4.87573e-06 0
0 -4.8684e-06 0
0 -5.22951e-06 0
0 -4.84801e-06 0
0 -4.88396e-06 0
0 -4.77612e-06 0
0 -4.81304e-06 0
0 -4.85251e-06 0
0 -4.8555e-06 0
0 -4.82575e-06 0
0 -4.80313e-06 0
0 -4.86923e-06 0
0 -4.85781e-06 0
0 -4.73027e-06 0
0 -1.08748e-05 0
0 -5.22863e-06 0
0 -5.34413e-06 0
0 -5.26459e-06 0
0 -5.05624e-06 0
0 -4.92238e-06 0
0 -5.43253e-06 0
0 -5.43253e-06 0
0 -5.43253e-06 0
0 -5.43253e-06 0
0 -5.43253e-06 0
0 -5.43253e-06 0
0 -5.40321e-06 0
0 -5.40321e-06 0
0 -7.3113e-06 0
0 -6.98147e-06 0
0 -4.8949e-06 0

