# vtk DataFile Version 4.2
vtk output
ASCII
DATASET UNSTRUCTURED_GRID

POINTS 343 double
0.00112203 0.00419501 8.41998e-08
0.00216998 0.00498281 0.0021753
0 0.00419538 0.00112517
0.0019301 0.00195478 0.00194209
0.00517098 0.00241015 0.00503174
0.00517213 0.00383272 0.00639707
0.00762019 0.00478158 0.0049977
0.00622213 0.00485438 0.003691
0.00683697 0.0032939 0.00691298
0.00498924 0.00499482 0.00499941
0.00418344 0.00112084 0.00999867
0.00528351 0.00208387 0.00790352
0.00419444 -4.47726e-06 0.00831688
0.00201274 0.00200274 0.00803316
0.00428779 0.00253508 0.00999865
0.00695221 0.00645147 0.00694594
0.00640958 0.00618639 0.0051823
0.00226079 0.00218504 0.00514608
0 0.00143586 0.00417514
0.00159428 0.00346625 0.00403708
0.00683696 0.00319941 0.00316043
0.00774734 0.00222029 0.00506258
0 0.00270918 0.00154168
0.00415931 0.00143132 -2.88782e-07
0.0050089 0.00219122 0.0021972
0.00396156 0.00352829 0.00160263
0.00134613 -4.49494e-07 0.00406
0.00418646 -4.77174e-06 0.00168765
0.00262367 0.00695213 -2.62327e-08
0.00193641 0.00805291 0.00194485
0.0040844 0.00624929 0.00164464
0.00799572 0.00799231 0.00799581
0.00796322 0.00482214 0.00802083
0.00838354 0.00608671 0.00594636
0.00998786 0.00883542 0.0041897
0.0075695 0.00764138 0.00496249
0.00855455 0.0099877 0.00416494
0.00796727 0.00797755 0.00201442
0.00353639 0.00303774 0.00695935
0.00443776 0.00366375 0.00832353
0.0038944 0.00160263 0.0059688
0.0050012 0.00767065 0.00767616
0.00198818 0.00800811 0.00798967
0.00282353 0.00999814 0.0071272
0.00391238 0.008401 0.00595768
0 0.00695361 0.00262895
0.00164551 0.00623944 0.00408788
0 0.0040177 0.00850214
0.00231416 0.00498602 0.00766149
0.00143299 0.00417461 0.00999996
0.00717024 0.00712308 0.0099966
0.00611539 0.00597422 0.00841645
0.00205025 0.0079416 0.00474185
0.00304172 0.00694344 0.00646767
0.00158612 0.00607849 0.00592601
0.00998494 0.00579354 0.00831231
0 0.00718191 0.00711644
0.00158342 0.00577363 3.28135e-08
0 0.00577432 0.00158701
0.00998681 0.00716717 0.00711174
0.00286772 0.00335005 0.00999943
0.00997258 0.00142029 0.00417161
0.00803759 0.00195071 0.00197721
0.00838845 0.0035098 0.00399648
0.00372753 0.00164999 0.0041281
0.00150757 0.00999972 0.00581506
0.00281253 -2.21419e-06 0.00712759
0.00610966 0.00417518 0.00837493
0.00998455 0.00725926 0.00419196
0.00853405 -1.28631e-05 0.00416548
0.00334088 0.00287088 -1.30877e-07
0.00270181 0.00153985 0.00999948
0.002821 -2.47605e-06 0.00283192
0.00479663 0.00519604 0.0075537
0.00315797 0.00314713 0.00316724
0 0.00849157 0.00581511
0.00486436 0.00367195 0.00378569
0.00153668 0.00270874 4.39552e-08
0.00579456 0.00831936 0.00999752
0.00597682 0.00999317 0.00850395
0.00420864 0.00999609 0.00831689
0.00401428 0.00850009 0.00999861
0.00998846 0.00847662 0.00581077
0.0031451 0.00683418 0.00315074
0 0.00748929 0.00137438
0.00137206 0.00748899 3.76371e-08
0 0.00287343 0.00335182
0 0.00580816 0.00831736
0 0.00429792 0.00253898
0.00253201 0.00429645 1.29304e-08
0.00143334 0.00581925 0.00999996
0.00517207 0.00647096 0.00639955
0.00360152 0.00651017 0.00823357
0.00693523 0.00261867 0.00999687
0.00800306 0.00194736 0.00803249
0.00694685 -9.77e-06 0.00308049
0.00600308 0.00165722 0.00361176
0.00997481 0.00285818 0.00334847
0 0.00140616 0.00256446
0.00636681 0.00822079 0.00641948
0.00579829 0.00142811 -6.48858e-07
0.00602112 0.00354516 0.00160212
0.00315269 0.00999765 0.005825
0.00855058 0.00998785 0.00583006
0.00255442 0.00140414 2.70508e-09
0.00595424 -7.87011e-06 0.00149334
0.00627283 0.00828077 0.00361604
0.00853009 -1.27614e-05 0.00583041
0.00618985 0.00166549 0.00636387
0.00140246 0.0025641 0.01
0.0071031 0.00717292 -1.59932e-06
0.00515915 0.00768492 0.00216812
0.00593147 0.00608711 0.00160078
0 0.00686719 0.00578184
0.00997123 0.00139047 0.00256135
0.001772 0.00361006 0.00640782
0.00998586 0.00847176 0.00262018
0.00839774 0.00617775 0.00413023
0.00597263 0.00999274 0.00149266
0.00694827 -9.5361e-06 0.0069245
0.00997396 0.00142003 0.00581562
0.00837929 0.00356166 0.00605794
0.00150268 -5.43819e-07 0.00581519
0 0.0013659 0.00748679
0.00136446 -4.35343e-07 0.00752894
0.00998502 0.00685239 0.00577757
0.00580662 0.00848481 -1.08361e-06
0 0.0075208 0.00859127
0.00136441 0.0074865 0.00999989
0.0042261 0.0082021 0.00362792
0.00858476 0.00998781 0.00750841
0.00999022 0.00861537 0.00752149
0.00575933 0.0015801 0.00999764
0.00724597 0.00417902 0.00999662
0 0.0057735 0.00666667
0.00136882 0.00999968 0.00752892
0 0.00863025 0.00752641
0.00855941 -1.30821e-05 0.00250515
0.00998263 0.00693857 0.00262551
0.00844362 0.00633038 0.00216057
0.00849744 0.00581235 0.00999569
0.00747072 0.00136405 0.00999641
0.0085642 -1.28221e-05 0.00750858
0.0099752 0.00135051 0.0074821
0 0.00143551 0.00581971
0.0059585 -7.53808e-06 0.00850395
0.00419706 -4.74174e-06 0.00339954
0.00791648 0.00469706 0.00203252
0.00997705 0.0042829 0.00253575
0.00422548 0.00999598 0.00666589
0.00283207 0.00999819 0.00283185
0.00130766 -4.79957e-07 0.00241828
0 0.00727418 0.00419576
0.00998349 0.00575884 0.00666214
0.00696635 0.00999089 0.0030799
0.0075015 0.00862733 0.00999632
0 0.00574334 0.00336387
0 0.0043297 0.00416652
0.00685992 0.00577612 0.00999688
0.00997806 0.00300714 0.00691078
0.00421046 -4.57906e-06 0.00666613
0.00247717 0.00999841 0.00861128
0.00746107 0.0013552 -1.39747e-06
0.00576755 0.00666078 0.00999753
0.00998877 0.0075061 0.00858609
0.00859964 0.00754185 0.00999556
0.00689404 0.00301317 -1.14901e-06
0.00335604 0.00574119 -1.11852e-07
0.00751506 0.00862011 -1.93291e-06
0.00750679 0.00998959 0.00138534
0.00577052 0.0068609 -1.01765e-06
0.0069624 0.00636234 0.00303177
0.00748691 -1.10148e-05 0.0013861
0.00287986 0.00499768 0.00999936
0.0043244 0.00583011 0.00999848
0.00432174 0.00416316 0.0099985
0.00751205 0.00999001 0.00861264
0.00246754 -1.82874e-06 0.00861144
0.00998064 0.00572851 0.0033604
0 0.00302218 0.00691532
0.00998138 0.00400294 0.00849707
0.00847934 0.00400558 -2.01617e-06
0.00997305 0.00269374 0.00153878
0 0.00244495 0.00857025
0.00244401 0.00856886 0.0099994
0.00749217 -1.06522e-05 0.00861264
0.00846916 0.00261189 0.0099957
0.00883572 0.00418147 0.00999542
0.00566724 0.00999356 0.00583205
0.00517991 0.0075785 0.0050315
0.00563857 0.00999352 0.00421413
0.00696772 0.00999112 0.00692428
0.00301922 0.0069138 0.00999917
0.0041549 0.00432625 -2.77501e-07
0.00282402 -2.54338e-06 0.00440458
0.00314086 -2.80994e-06 0.00582531
0.00997577 0.00418021 0.00112221
0.00363329 0.00833464 0.00158788
0.00997843 0.00431475 0.00416286
0.00665136 0.0057655 -1.20921e-06
0.00857997 0.0099875 0.00250443
0 0.00848692 0.00262374
0.00135057 0.00999973 0.00405992
0 0.00885053 0.00419359
0.00418834 0.00884644 -5.01899e-07
0.0042013 0.00999587 0.00168721
0.00498755 0.00478675 0.00237821
0.00720056 0.0045124 -1.36648e-06
0.00562088 -7.21818e-06 0.00421465
0.0056496 -7.16222e-06 0.00583235
0.00131198 0.00999974 0.0024181
0.00854411 0.00243235 -1.96122e-06
0.00998137 0.00450699 0.00721489
0.00710949 0.00999074 0.00499818
0.00573156 0.00335781 0.00999768
0.00244766 -2.04015e-06 0.00135654
0.00997824 0.00242984 0.00856519
0.00239082 0.00479019 0.00499985
0.00581718 0.00432362 -7.90017e-07
0.00829862 0.00579657 -2.12473e-06
0.00547696 0.00999399 0.00721894
0.00997981 0.00431528 0.00582912
0.00539827 0.00999386 0.00277467
0.00708986 -9.91012e-06 0.00499864
0.0028348 0.00999819 0.0044043
0 0.00452174 0.00721958
0.00451735 0.00721636 0.00999834
0.0054596 -6.7111e-06 0.00721897
0.00359635 0.00507151 0.00359634
0.00424965 0.00999596 0.00500763
0.00423426 -4.68369e-06 0.00500809
0.00366485 0.00521447 0.00617426
0 0.005744 0.00499998
0 0.00433013 0.00583333
0.00498833 0.00573935 -5.79301e-07
0.00497646 0.00633458 0.00355313
0.00538088 -6.86051e-06 0.00277521
0.00998201 0.00572929 0.00499598
0.00368542 0.00640538 0.00484367
0.00573512 0.00499434 0.00999762
0.00997933 0.00575935 0.00158389
0 0.00666667 0
0.00857558 0.00750865 -2.45692e-06
0.00331846 -3.64275e-06 1.70418e-07
0 0.01 0.00666667
0.00500023 0.00999471 0.00999811
0 0.00288419 0.00499914
0.00998279 0.00747412 0.00137115
0.0099801 0.00665155 -3.25887e-06
0 0.005 0.01
0.00498273 0.00287889 -4.88385e-07
0 0.005 0
0.00996904 -1.58875e-05 0.00333012
0.00999243 0.00998472 0.00666197
0.00418815 0.00727063 -4.46768e-07
0.00997617 0.00286906 0.00499527
0.004979 -6.43271e-06 -2.32265e-07
0 0 0.00666667
0.00379017 0.00361398 0.00522604
0.00498416 -6.14876e-06 0.00999791
0.00997177 -1.57416e-05 0.00666231
0 0 0.005
0.00876996 0.00998694 0.00121738
0.0099854 0.00876453 0.00121674
0.00997039 -1.58007e-05 0.00499624
0.00997667 0.00498478 -3.06991e-06
0.00121559 0.00121951 1.44918e-08
0 0.00122008 0.00122008
0 0.00333333 0.01
0 0.00666667 0.01
0.00876657 0.00876703 -2.66732e-06
0.00998968 0.00998446 0.00332951
0.00421234 0.00999594 0.00339918
0.00998819 0.00665208 0.00999444
0 0.00333333 0
0 0.00122008 0.00877992
0.00121568 -5.19745e-07 0.00877978
0.00121646 0.00121967 0.0100001
0.008776 0.00998741 0.0087756
0.00121911 0.00877958 0.00999991
0 0.00877992 0.00877992
0.00999161 0.00876503 0.00877466
0.00665948 0.00999121 -1.70533e-06
0.00996978 0.00120426 0.0012173
0.00121964 0.0099996 0.00877998
0.00877449 0.00876767 0.00999541
0.00998473 0.00498537 0.00999446
0 0 0.00333333
0.00664035 -9.38805e-06 -8.33993e-07
0.00874935 -1.35603e-05 0.00121818
0.00120653 -5.77604e-07 0.00121189
0 0.00877992 0.00122008
0.00121848 0.00877949 7.75185e-08
0.00121062 0.00999964 0.00121147
0.00997594 0.00120462 0.00877472
0.00875883 0.00120708 0.00999541
0.00664701 -9.14036e-06 0.0099967
0.00875092 0.00120671 -2.0012e-06
0.0087554 -1.32437e-05 0.00877556
0.00997326 0.00331794 -2.90719e-06
0.00333396 0.00999717 0.00999916
0.00245751 0.00999856 0.00135623
0.00666609 0.00999177 0.009997
0.00998128 0.00331848 0.00999447
0 0.01 0.005
0.0026202 0.00848528 -5.03229e-08
0.00999102 0.00998461 0.00499582
0 0.01 0.00333333
0 0.00166667 0
0.00996771 -1.60256e-05 0.00166389
0 0.00166667 0.01
0 0.00833333 0
0.00998366 0.00831792 -3.36887e-06
0.00997314 -1.57506e-05 0.00832822
0.00998835 0.00998433 0.00166316
0.00999382 0.00998476 0.00832816
0.00166688 0.00999902 0.0099998
0 0.01 0.00833333
0.00832338 0.00998777 -2.55398e-06
0.00830292 -1.27892e-05 -1.67919e-06
0.00831061 -1.24871e-05 0.00999557
0.00833099 0.00998831 0.00999575
0 0 0.00833333
0.00999172 0.00831855 0.00999442
0.00165901 -1.31771e-06 1.07736e-07
0 0 0.00166667
0.00333104 0.00999718 -3.07226e-07
0.00997788 0.00165126 0.00999444
0.00996985 0.00165084 -2.80145e-06
0.00166055 -1.0717e-06 0.00999988
0.00166569 0.00999917 -1.48687e-08
0 0.01 0.00166667
0.00999523 0.00998484 0.00999445
0 0 0.01
0.00998715 0.00998416 -3.54361e-06
0.0099745 -1.58534e-05 0.00999431
0 0.01 0.01
0.00996647 -1.60968e-05 -2.66567e-06
0 0.01 0
0 0 0
0.00499538 0.00999436 -9.12678e-07
0.00332206 -3.35571e-06 0.00999888
0 0.00833333 0.01

CELLS 343 686
1 0
1 1
1 2
1 3
1 4
1 5
1 6
1 7
1 8
1 9
1 10
1 11
1 12
1 13
1 14
1 15
1 16
1 17
1 18
1 19
1 20
1 21
1 22
1 23
1 24
1 25
1 26
1 27
1 28
1 29
1 30
1 31
1 32
1 33
1 34
1 35
1 36
1 37
1 38
1 39
1 40
1 41
1 42
1 43
1 44
1 45
1 46
1 47
1 48
1 49
1 50
1 51
1 52
1 53
1 54
1 55
1 56
1 57
1 58
1 59
1 60
1 61
1 62
1 63
1 64
1 65
1 66
1 67
1 68
1 69
1 70
1 71
1 72
1 73
1 74
1 75
1 76
1 77
1 78
1 79
1 80
1 81
1 82
1 83
1 84
1 85
1 86
1 87
1 88
1 89
1 90
1 91
1 92
1 93
1 94
1 95
1 96
1 97
1 98
1 99
1 100
1 101
1 102
1 103
1 104
1 105
1 106
1 107
1 108
1 109
1 110
1 111
1 112
1 113
1 114
1 115
1 116
1 117
1 118
1 119
1 120
1 121
1 122
1 123
1 124
1 125
1 126
1 127
1 128
1 129
1 130
1 131
1 132
1 133
1 134
1 135
1 136
1 137
1 138
1 139
1 140
1 141
1 142
1 143
1 144
1 145
1 146
1 147
1 148
1 149
1 150
1 151
1 152
1 153
1 154
1 155
1 156
1 157
1 158
1 159
1 160
1 161
1 162
1 163
1 164
1 165
1 166
1 167
1 168
1 169
1 170
1 171
1 172
1 173
1 174
1 175
1 176
1 177
1 178
1 179
1 180
1 181
1 182
1 183
1 184
1 185
1 186
1 187
1 188
1 189
1 190
1 191
1 192
1 193
1 194
1 195
1 196
1 197
1 198
1 199
1 200
1 201
1 202
1 203
1 204
1 205
1 206
1 207
1 208
1 209
1 210
1 211
1 212
1 213
1 214
1 215
1 216
1 217
1 218
1 219
1 220
1 221
1 222
1 223
1 224
1 225
1 226
1 227
1 228
1 229
1 230
1 231
1 232
1 233
1 234
1 235
1 236
1 237
1 238
1 239
1 240
1 241
1 242
1 243
1 244
1 245
1 246
1 247
1 248
1 249
1 250
1 251
1 252
1 253
1 254
1 255
1 256
1 257
1 258
1 259
1 260
1 261
1 262
1 263
1 264
1 265
1 266
1 267
1 268
1 269
1 270
1 271
1 272
1 273
1 274
1 275
1 276
1 277
1 278
1 279
1 280
1 281
1 282
1 283
1 284
1 285
1 286
1 287
1 288
1 289
1 290
1 291
1 292
1 293
1 294
1 295
1 296
1 297
1 298
1 299
1 300
1 301
1 302
1 303
1 304
1 305
1 306
1 307
1 308
1 309
1 310
1 311
1 312
1 313
1 314
1 315
1 316
1 317
1 318
1 319
1 320
1 321
1 322
1 323
1 324
1 325
1 326
1 327
1 328
1 329
1 330
1 331
1 332
1 333
1 334
1 335
1 336
1 337
1 338
1 339
1 340
1 341
1 342

CELL_TYPES 343
1
1
1
1
1
1
1
1
1
1
1
1
1
1
1
1
1
1
1
1
1
1
1
1
1
1
1
1
1
1
1
1
1
1
1
1
1
1
1
1
1
1
1
1
1
1
1
1
1
1
1
1
1
1
1
1
1
1
1
1
1
1
1
1
1
1
1
1
1
1
1
1
1
1
1
1
1
1
1
1
1
1
1
1
1
1
1
1
1
1
1
1
1
1
1
1
1
1
1
1
1
1
1
1
1
1
1
1
1
1
1
1
1
1
1
1
1
1
1
1
1
1
1
1
1
1
1
1
1
1
1
1
1
1
1
1
1
1
1
1
1
1
1
1
1
1
1
1
1
1
1
1
1
1
1
1
1
1
1
1
1
1
1
1
1
1
1
1
1
1
1
1
1
1
1
1
1
1
1
1
1
1
1
1
1
1
1
1
1
1
1
1
1
1
1
1
1
1
1
1
1
1
1
1
1
1
1
1
1
1
1
1
1
1
1
1
1
1
1
1
1
1
1
1
1
1
1
1
1
1
1
1
1
1
1
1
1
1
1
1
1
1
1
1
1
1
1
1
1
1
1
1
1
1
1
1
1
1
1
1
1
1
1
1
1
1
1
1
1
1
1
1
1
1
1
1
1
1
1
1
1
1
1
1
1
1
1
1
1
1
1
1
1
1
1
1
1
1
1
1
1
1
1
1
1
1
1
1
1
1
1
1
1
1
1
1
1
1
1
1
1
1
1
1
1
1
1
1
1
1
1
1
1
1
1
1
1
1
1
1
1
1
1

POINT_DATA 343
FIELD FieldData 3

ExternalForceID_(#) 1 343 int
0
1
2
3
4
5
6
7
8
9
10
11
12
13
14
15
16
17
18
19
20
21
22
23
24
25
26
27
28
29
30
31
32
33
34
35
36
37
38
39
40
41
42
43
44
45
46
47
48
49
50
51
52
53
54
55
56
57
58
59
60
61
62
63
64
65
66
67
68
69
70
71
72
73
74
75
76
77
78
79
80
81
82
83
84
85
86
87
88
89
90
91
92
93
94
95
96
97
98
99
100
101
102
103
104
105
106
107
108
109
110
111
112
113
114
115
116
117
118
119
120
121
122
123
124
125
126
127
128
129
130
131
132
133
134
135
136
137
138
139
140
141
142
143
144
145
146
147
148
149
150
151
152
153
154
155
156
157
158
159
160
161
162
163
164
165
166
167
168
169
170
171
172
173
174
175
176
177
178
179
180
181
182
183
184
185
186
187
188
189
190
191
192
193
194
195
196
197
198
199
200
201
202
203
204
205
206
207
208
209
210
211
212
213
214
215
216
217
218
219
220
221
222
223
224
225
226
227
228
229
230
231
232
233
234
235
236
237
238
239
240
241
242
243
244
245
246
247
248
249
250
251
252
253
254
255
256
257
258
259
260
261
262
263
264
265
266
267
268
269
270
271
272
273
274
275
276
277
278
279
280
281
282
283
284
285
286
287
288
289
290
291
292
293
294
295
296
297
298
299
300
301
302
303
304
305
306
307
308
309
310
311
312
313
314
315
316
317
318
319
320
321
322
323
324
325
326
327
328
329
330
331
332
333
334
335
336
337
338
339
340
341
342

ExternalForceType_(0/1/2/3/4) 1 343 int
0
0
0
0
0
0
0
0
0
0
0
0
0
0
0
0
0
0
0
0
0
0
0
0
0
0
0
0
0
0
0
0
0
0
0
0
0
0
0
0
0
0
0
0
0
0
0
0
0
0
0
0
0
0
0
0
0
0
0
0
0
0
0
0
0
0
0
0
0
0
0
0
0
0
0
0
0
0
0
0
0
0
0
0
0
0
0
0
0
0
0
0
0
0
0
0
0
0
0
0
0
0
0
0
0
0
0
0
0
0
0
0
0
0
0
0
0
0
0
0
0
0
0
0
0
0
0
0
0
0
0
0
0
0
0
0
0
0
0
0
0
0
0
0
0
0
0
0
0
0
0
0
0
0
0
0
0
0
0
0
0
0
0
0
0
0
0
0
0
0
0
0
0
0
0
0
0
0
0
0
0
0
0
0
0
0
0
0
0
0
0
0
0
0
0
0
0
0
0
0
0
0
0
0
0
0
0
0
0
0
0
0
0
0
0
0
0
0
0
0
0
0
0
0
0
0
0
0
0
0
0
0
0
0
0
0
0
0
0
0
0
0
0
0
0
0
0
0
0
0
0
0
0
0
0
0
0
0
0
0
0
0
0
0
0
0
0
0
0
0
0
0
0
0
0
0
0
0
0
0
0
0
0
0
0
0
0
0
0
0
0
0
0
0
0
0
0
0
0
0
0
0
0
0
0
0
0
0
0
0
0
0
0
0
0
0
0
0
0
0
0
0
0
0
0
0
0
0
0
0
0
0
0
0
0
0
0
0
0
0
0
0
0

ExternalForce_(N) 3 343 double
0 -3.09568e-05 0
0 -0.000138619 0
0 -2.16714e-05 0
0 -0.000168226 0
0 -8.26002e-05 0
0 -8.9203e-05 0
0 -9.74165e-05 0
0 -7.37906e-05 0
0 -6.68156e-05 0
0 -5.47617e-05 0
0 -3.04981e-05 0
0 -0.000105531 0
0 -4.77758e-05 0
0 -0.000161821 0
0 -2.96713e-05 0
0 -7.9067e-05 0
0 -6.57564e-05 0
0 -0.000106704 0
0 -4.11017e-05 0
0 -8.006e-05 0
0 -6.02474e-05 0
0 -0.000115662 0
0 -2.18875e-05 0
0 -4.17098e-05 0
0 -0.000107827 0
0 -7.27379e-05 0
0 -4.13856e-05 0
0 -3.85027e-05 0
0 -3.029e-05 0
0 -0.000128774 0
0 -7.57947e-05 0
0 -0.000162261 0
0 -0.000116775 0
0 -7.15802e-05 0
0 -3.74431e-05 0
0 -0.000108892 0
0 -3.74072e-05 0
0 -0.000136493 0
0 -6.25303e-05 0
0 -7.85756e-05 0
0 -7.52544e-05 0
0 -0.000116589 0
0 -0.000160874 0
0 -2.73339e-05 0
0 -8.7662e-05 0
0 -2.53184e-05 0
0 -7.42972e-05 0
0 -4.15199e-05 0
0 -0.000128792 0
0 -3.72945e-05 0
0 -2.72189e-05 0
0 -7.03157e-05 0
0 -0.000119003 0
0 -5.02041e-05 0
0 -8.04153e-05 0
0 -4.4939e-05 0
0 -2.74192e-05 0
0 -3.19929e-05 0
0 -4.04607e-05 0
0 -2.07889e-05 0
0 -3.28809e-05 0
0 -3.54797e-05 0
0 -0.000153858 0
0 -7.19739e-05 0
0 -8.09026e-05 0
0 -4.90862e-05 0
0 -2.77255e-05 0
0 -7.06591e-05 0
0 -3.20606e-05 0
0 -4.10794e-05 0
0 -1.98932e-05 0
0 -2.37551e-05 0
0 -3.0591e-05 0
0 -5.86107e-05 0
0 -5.75946e-05 0
0 -4.01595e-05 0
0 -5.35099e-05 0
0 -2.24477e-05 0
0 -4.41213e-05 0
0 -4.29866e-05 0
0 -4.42325e-05 0
0 -4.30889e-05 0
0 -4.19155e-05 0
0 -5.21923e-05 0
0 -1.5029e-05 0
0 -2.34331e-05 0
0 -1.9903e-05 0
0 -4.30461e-05 0
0 -3.11931e-05 0
0 -3.08326e-05 0
0 -4.52797e-05 0
0 -5.7648e-05 0
0 -8.02544e-05 0
0 -2.43623e-05 0
0 -0.000150893 0
0 -3.43039e-05 0
0 -7.21258e-05 0
0 -1.97489e-05 0
0 -2.00202e-05 0
0 -7.83017e-05 0
0 -4.32908e-05 0
0 -7.00326e-05 0
0 -1.17841e-05 0
0 -4.93779e-05 0
0 -1.58193e-05 0
0 -4.04762e-05 0
0 -8.57147e-05 0
0 -4.2953e-05 0
0 -7.82027e-05 0
0 -2.09499e-05 0
0 -3.31713e-05 0
0 -9.30599e-05 0
0 -7.26197e-05 0
0 -1.76801e-05 0
0 -2.06228e-05 0
0 -7.8371e-05 0
0 -1.84411e-05 0
0 -7.30662e-05 0
0 -4.11806e-05 0
0 -2.3265e-05 0
0 -4.23503e-05 0
0 -5.94919e-05 0
0 -4.22718e-05 0
0 -2.12723e-05 0
0 -1.86252e-05 0
0 -1.77849e-05 0
0 -3.82356e-05 0
0 -2.39658e-05 0
0 -1.62481e-05 0
0 -7.86148e-05 0
0 -1.61387e-05 0
0 -2.34763e-05 0
0 -2.95637e-05 0
0 -2.93742e-05 0
0 -1.33947e-05 0
0 -1.83735e-05 0
0 -2.05639e-05 0
0 -1.91062e-05 0
0 -1.84053e-05 0
0 -6.25793e-05 0
0 -4.49914e-05 0
0 -1.98914e-05 0
0 -1.58922e-05 0
0 -2.367e-05 0
0 -3.81266e-05 0
0 -4.36518e-05 0
0 -2.25472e-05 0
0 -0.000115119 0
0 -3.05886e-05 0
0 -1.32828e-05 0
0 -3.38507e-05 0
0 -1.78391e-05 0
0 -2.88237e-05 0
0 -1.34771e-05 0
0 -2.36876e-05 0
0 -2.06453e-05 0
0 -2.58912e-05 0
0 -2.10097e-05 0
0 -1.7602e-05 0
0 -3.13896e-05 0
0 -1.34386e-05 0
0 -2.38863e-05 0
0 -2.04203e-05 0
0 -1.33426e-05 0
0 -2.13076e-05 0
0 -1.86316e-05 0
0 -3.10974e-05 0
0 -2.56228e-05 0
0 -2.33161e-05 0
0 -1.57181e-05 0
0 -1.87061e-05 0
0 -5.38771e-05 0
0 -1.84308e-05 0
0 -3.08341e-05 0
0 -2.91652e-05 0
0 -1.16203e-05 0
0 -1.85667e-05 0
0 -2.00287e-05 0
0 -2.68375e-05 0
0 -2.37799e-05 0
0 -3.16945e-05 0
0 -3.13676e-05 0
0 -3.15313e-05 0
0 -1.90796e-05 0
0 -1.58134e-05 0
0 -1.83326e-05 0
0 -3.16308e-05 0
0 -2.07128e-05 0
0 -2.91276e-05 0
0 -6.03597e-05 0
0 -2.26581e-05 0
0 -2.35174e-05 0
0 -2.33506e-05 0
0 -2.59482e-05 0
0 -1.63393e-05 0
0 -1.78912e-05 0
0 -2.02658e-05 0
0 -5.62379e-05 0
0 -2.04507e-05 0
0 -2.14176e-05 0
0 -2.38895e-05 0
0 -3.05955e-05 0
0 -3.11287e-05 0
0 -2.01544e-05 0
0 -1.92198e-05 0
0 -2.99909e-05 0
0 -6.32085e-05 0
0 -2.04829e-05 0
0 -2.67435e-05 0
0 -2.11611e-05 0
0 -1.83262e-05 0
0 -1.96474e-05 0
0 -2.0699e-05 0
0 -2.83503e-05 0
0 -2.27807e-05 0
0 -2.35234e-05 0
0 -1.93874e-05 0
0 -6.29086e-05 0
0 -2.12117e-05 0
0 -3.22943e-05 0
0 -2.06229e-05 0
0 -2.61501e-05 0
0 -1.90721e-05 0
0 -2.86319e-05 0
0 -2.53212e-05 0
0 -2.07681e-05 0
0 -2.05553e-05 0
0 -1.88077e-05 0
0 -6.92631e-05 0
0 -2.20924e-05 0
0 -2.02457e-05 0
0 -6.16224e-05 0
0 -2.08117e-05 0
0 -2.85397e-05 0
0 -2.08875e-05 0
0 -6.32617e-05 0
0 -1.39008e-05 0
0 -2.0289e-05 0
0 -6.45558e-05 0
0 -2.47785e-05 0
0 -2.35177e-05 0
0 -7.28089e-06 0
0 -2.18143e-05 0
0 -6.93323e-06 0
0 -6.87344e-06 0
0 -8.76768e-06 0
0 -2.48719e-05 0
0 -2.22231e-05 0
0 -1.31068e-05 0
0 -7.69816e-06 0
0 -2.27889e-05 0
0 -5.95166e-06 0
0 -6.55579e-06 0
0 -6.71305e-06 0
0 -2.46468e-05 0
0 -2.27228e-05 0
0 -7.6878e-06 0
0 -6.67903e-06 0
0 -6.10861e-05 0
0 -6.6189e-06 0
0 -6.52665e-06 0
0 -6.87836e-06 0
0 -1.78856e-05 0
0 -1.87072e-05 0
0 -6.73674e-06 0
0 -6.91401e-06 0
0 -1.82903e-05 0
0 -2.2423e-05 0
0 -6.67521e-06 0
0 -7.02401e-06 0
0 -1.78908e-05 0
0 -5.89658e-06 0
0 -1.98938e-05 0
0 -7.3162e-06 0
0 -5.63509e-06 0
0 -1.76631e-05 0
0 -1.42638e-05 0
0 -2.22707e-05 0
0 -1.77204e-05 0
0 -2.11264e-05 0
0 -1.75686e-05 0
0 -1.76047e-05 0
0 -6.69346e-06 0
0 -2.20467e-05 0
0 -1.42479e-05 0
0 -1.76144e-05 0
0 -6.84615e-06 0
0 -6.12404e-06 0
0 -6.50125e-06 0
0 -1.41879e-05 0
0 -1.37476e-05 0
0 -2.11168e-05 0
0 -1.79377e-05 0
0 -1.37282e-05 0
0 -1.41198e-05 0
0 -2.15061e-05 0
0 -6.84475e-06 0
0 -1.74349e-05 0
0 -1.75758e-05 0
0 -6.41828e-06 0
0 -7.20025e-06 0
0 -2.30432e-05 0
0 -6.96894e-06 0
0 -6.44499e-06 0
0 -6.14414e-06 0
0 -2.14766e-05 0
0 -6.00855e-06 0
0 -5.92427e-06 0
0 -5.81567e-06 0
0 -5.02303e-06 0
0 -5.01945e-06 0
0 -4.85271e-06 0
0 -4.87573e-06 0
0 -4.8684e-06 0
0 -5.22951e-06 0
0 -4.84801e-06 0
0 -4.88396e-06 0
0 -4.77612e-06 0
0 -4.81304e-06 0
0 -4.85251e-06 0
0 -4.8555e-06 0
0 -4.82575e-06 0
0 -4.80313e-06 0
0 -4.86923e-06 0
0 -4.85781e-06 0
0 -4.73027e-06 0
0 -1.08748e-05 0
0 -5.22863e-06 0
0 -5.34413e-06 0
0 -5.26459e-06 0
0 -5.05624e-06 0
0 -4.92238e-06 0
0 -5.43253e-06 0
0 -5.43253e-06 0
0 -5.43253e-06 0
0 -5.43253e-06 0
0 -5.43253e-06 0
0 -5.43253e-06 0
0 -5.40321e-06 0
0 -5.40321e-06 0
0 -7.3113e-06 0
0 -6.98147e-06 0
0 -4.8949e-06 0

