# vtk DataFile Version 4.2
vtk output
ASCII
DATASET UNSTRUCTURED_GRID

POINTS 343 double
0.00124015 0.00419998 -4.23971e-06
0.00239683 0.00499304 0.00216651
0 0.00419538 0.00112517
0.00213715 0.00196406 0.00193428
0.00573664 0.00244851 0.00500922
0.00572974 0.00386775 0.00637361
0.00844088 0.00484417 0.0049632
0.00688654 0.00490018 0.00366475
0.00758316 0.00334935 0.00688022
0.00551858 0.0050269 0.00497793
0.00464946 0.00115138 0.00997938
0.00586584 0.00212407 0.00787892
0.00466685 2.75564e-05 0.00829836
0.0022303 0.0020121 0.00802486
0.00475801 0.00256386 0.00997866
0.00768759 0.00650291 0.00691264
0.007086 0.00623235 0.00515392
0.0025043 0.00219628 0.00513699
0 0.00143586 0.00417514
0.00176359 0.00347321 0.004031
0.00758206 0.003256 0.00313174
0.00860255 0.00229004 0.00502726
0 0.00270918 0.00154168
0.00461722 0.00146277 -1.60006e-05
0.00555732 0.00222934 0.00217623
0.00438575 0.0035527 0.00158654
0.00149414 5.60446e-06 0.00405456
0.00465527 2.79654e-05 0.00167014
0.00289486 0.00696532 -9.96749e-06
0.00213428 0.00806159 0.00193695
0.00451023 0.00627224 0.00162814
0.00883569 0.00805484 0.00795542
0.00882452 0.00488808 0.00798048
0.00928079 0.00615644 0.00590702
0.0110475 0.00892274 0.00414485
0.00836219 0.00769961 0.00492875
0.00944041 0.0100557 0.00412761
0.00880083 0.00804059 0.00198224
0.00391809 0.0030584 0.00694439
0.00491736 0.00369148 0.00830307
0.0043227 0.00162929 0.00595208
0.00551986 0.00770251 0.00765312
0.00219324 0.00801733 0.00798197
0.00310722 0.010013 0.00711611
0.00431212 0.00842401 0.00594135
0 0.00695361 0.00262895
0.00181667 0.00624697 0.00408134
0 0.0040177 0.00850214
0.00255751 0.00499684 0.00765224
0.00158483 0.00418096 0.00999446
0.00792921 0.00717652 0.00995994
0.00676442 0.00601672 0.00838661
0.00226115 0.00795087 0.00473373
0.00335761 0.00695867 0.00645555
0.00175177 0.00608552 0.00591972
0.0110711 0.00588407 0.00826079
0 0.00718191 0.00711644
0.00174787 0.005781 -5.95783e-06
0 0.00577432 0.00158701
0.0110611 0.00725545 0.0070616
0.00317713 0.00336547 0.00998658
0.0110913 0.00152182 0.00412629
0.00892698 0.0020256 0.00194415
0.00930571 0.0035847 0.00395954
0.00413652 0.0016754 0.00411226
0.00165968 0.0100057 0.00580925
0.00312873 1.5982e-05 0.00711598
0.00677035 0.00421966 0.00834532
0.0110557 0.00734684 0.00414681
0.00949796 7.30883e-05 0.00412712
0.00370015 0.00289076 -1.25724e-05
0.00299964 0.00155567 0.0099874
0.00313684 1.66568e-05 0.00282041
0.00530712 0.00522582 0.00753161
0.00349606 0.00316441 0.00315413
0 0.00849157 0.00581511
0.00538758 0.00370458 0.00376505
0.00170027 0.00271527 -5.6943e-06
0.00639793 0.00835915 0.00996881
0.00658777 0.0100343 0.00847425
0.00463606 0.010022 0.00829762
0.00442937 0.0085248 0.0099804
0.0110518 0.00856383 0.00576306
0.00347095 0.00685035 0.00313759
0 0.00748929 0.00137438
0.00151258 0.00749457 -5.11511e-06
0 0.00287343 0.00335182
0 0.00580816 0.00831736
0 0.00429792 0.00253898
0.00279874 0.00430943 -9.47557e-06
0.00158378 0.0058254 0.0099944
0.00571403 0.00650398 0.00637643
0.00397918 0.0065289 0.00821775
0.00770194 0.00267691 0.00996164
0.00889243 0.0020207 0.0079921
0.00772908 5.49705e-05 0.00305081
0.00666642 0.00170713 0.00358598
0.0110813 0.00295607 0.00330464
0 0.00140616 0.00256446
0.00702699 0.00826624 0.00639023
0.00644111 0.00147734 -2.29098e-05
0.00667349 0.00359176 0.00157782
0.00346967 0.0100153 0.0058117
0.00943697 0.0100556 0.00579019
0.00283375 0.00142034 -9.53883e-06
0.00662448 4.49711e-05 0.00146865
0.00692089 0.00832557 0.00358952
0.00949422 7.26635e-05 0.00578964
0.00687506 0.00171681 0.00633528
0.00155331 0.0025698 0.00999452
0.00784788 0.00722688 -2.8615e-05
0.00569069 0.00771887 0.00214742
0.00655556 0.00612809 0.00157721
0 0.00686719 0.00578184
0.0110898 0.00149265 0.00251842
0.00196043 0.00361802 0.00640068
0.0110477 0.00855944 0.00257779
0.00929444 0.00624823 0.00409315
0.00657827 0.0100348 0.00146945
0.00773322 5.50019e-05 0.00689116
0.0110937 0.00152097 0.0057671
0.00929687 0.00363633 0.00601782
0.00166772 6.44432e-06 0.00580931
0 0.0013659 0.00748679
0.00151425 5.9636e-06 0.00752385
0.0110602 0.00694074 0.00573023
0.00640305 0.00852535 -2.26611e-05
0 0.0075208 0.00859127
0.00150629 0.00749226 0.00999462
0.00465783 0.0082278 0.00361057
0.00947657 0.0100563 0.00746544
0.0110542 0.00870203 0.00747097
0.00640133 0.00162683 0.00996916
0.00803545 0.00423706 0.00995949
0 0.0057735 0.00666667
0.00150749 0.0100052 0.00752347
0 0.00863025 0.00752641
0.00952604 7.39744e-05 0.00246847
0.0110558 0.00702687 0.00258291
0.00934353 0.00640126 0.00212605
0.00941325 0.0058834 0.00995078
0.00830721 0.00143189 0.00995795
0.00953416 7.33352e-05 0.00746601
0.0110975 0.00145156 0.00743117
0 0.00143551 0.00581971
0.00663235 4.42784e-05 0.00847527
0.00466842 2.84998e-05 0.00338188
0.00876981 0.00476409 0.00200035
0.0110716 0.00437778 0.00249379
0.0046515 0.0100222 0.00664762
0.00311453 0.010013 0.00282039
0.00145097 5.59679e-06 0.00241286
0 0.00727418 0.00419576
0.0110684 0.00585004 0.00661289
0.00767899 0.0100427 0.00305115
0.00828686 0.00868509 0.00995752
0 0.00574334 0.00336387
0 0.0043297 0.00416652
0.00759474 0.00582727 0.00996163
0.0110858 0.00310431 0.00686063
0.00468433 2.82336e-05 0.0066476
0.00272678 0.0100112 0.00860079
0.008291 0.0014248 -3.04096e-05
0.00637766 0.00669976 0.00996907
0.0110621 0.00759401 0.00853444
0.00951362 0.00761207 0.00994996
0.00764743 0.00307172 -2.81288e-05
0.00370671 0.00575877 -1.30005e-05
0.00829526 0.00867827 -3.05323e-05
0.00827788 0.0100474 0.00135566
0.00637272 0.00690077 -2.26139e-05
0.00769735 0.00641466 0.00300267
0.00833058 6.18134e-05 0.00135528
0.00318606 0.00501209 0.00998654
0.0047843 0.00585522 0.0099781
0.00478823 0.00418929 0.00997813
0.00828742 0.0100475 0.00857409
0.00274458 1.41183e-05 0.00860119
0.0110634 0.00582077 0.00331687
0 0.00302218 0.00691532
0.0110825 0.00409743 0.0084453
0.00940341 0.00408223 -3.44967e-05
0.0110806 0.00279253 0.00149799
0 0.00244495 0.00857025
0.00269617 0.00858177 0.00998893
0.00834054 6.1158e-05 0.00857512
0.00940885 0.00268937 0.00995111
0.00980426 0.00426024 0.0099485
0.00624293 0.0100324 0.00580664
0.00571588 0.00761229 0.00500911
0.00621006 0.0100323 0.0041903
0.00768254 0.0100426 0.00689108
0.00333587 0.00692841 0.00998583
0.00459659 0.00435147 -1.63327e-05
0.00313963 1.66823e-05 0.00439251
0.00349331 1.87885e-05 0.00581172
0.0110713 0.0042758 0.00108211
0.00400384 0.00835606 0.00157325
0.0110729 0.004409 0.00411718
0.00735691 0.00581587 -2.6689e-05
0.00946821 0.0100562 0.00246892
0 0.00848692 0.00262374
0.00148734 0.0100053 0.00405469
0 0.00885053 0.00419359
0.00461391 0.00887297 -1.63874e-05
0.00462223 0.0100224 0.00167057
0.0055172 0.00481888 0.00235799
0.00797627 0.00457146 -2.92502e-05
0.00625234 4.16013e-05 0.00419014
0.006285 4.16143e-05 0.00580689
0.00144433 0.0100051 0.00241298
0.00948844 0.00251305 -3.47782e-05
0.0110771 0.00460043 0.00716436
0.00783819 0.0100435 0.00496666
0.00635799 0.00339968 0.00996951
0.00272134 1.41311e-05 0.00134652
0.0110929 0.00252843 0.00851307
0.00264257 0.00480186 0.00499009
0.00644195 0.00436664 -2.33765e-05
0.00918712 0.00586677 -3.384e-05
0.00603381 0.0100308 0.00719363
0.0110758 0.00440929 0.00578096
0.00594368 0.0100307 0.00275303
0.00788918 5.6491e-05 0.00496665
0.00311826 0.010013 0.00439283
0 0.00452174 0.00721958
0.00499078 0.00724331 0.00997703
0.00607473 3.946e-05 0.00719406
0.00397488 0.00509128 0.00358145
0.00467623 0.0100223 0.00498972
0.00471031 2.8875e-05 0.00498949
0.00405154 0.00523452 0.00615891
0 0.005744 0.00499998
0 0.00433013 0.00583333
0.0055133 0.00577089 -1.97719e-05
0.00549644 0.00636586 0.00353226
0.00598546 3.94066e-05 0.00275233
0.0110655 0.00582151 0.00494926
0.00406933 0.00642534 0.0048285
0.00635148 0.00503337 0.0099694
0.0110617 0.0058517 0.00154352
0 0.00666667 0
0.00948245 0.00757994 -3.49089e-05
0.00368979 2.22809e-05 -1.37529e-05
0 0.01 0.00666667
0.00551256 0.0100276 0.00997377
0 0.00288419 0.00499914
0.011052 0.00756193 0.00133126
0.0110559 0.0067419 -4.17916e-05
0 0.005 0.01
0.00552456 0.00291533 -1.95495e-05
0 0.005 0
0.0111007 9.13729e-05 0.00328592
0.0110469 0.0100688 0.00661271
0.00462065 0.0072955 -1.63355e-05
0.0110834 0.00296699 0.00494832
0.00553824 3.70034e-05 -2.06016e-05
0 0 0.00666667
0.00419603 0.00363599 0.00521015
0.00554859 3.58016e-05 0.009975
0.0111057 9.07252e-05 0.00661246
0 0 0.005
0.00968014 0.0100579 0.00118293
0.011045 0.00885184 0.00117703
0.011103 9.09271e-05 0.00494902
0.0110662 0.0050789 -4.14622e-05
0.00134657 0.00122564 -4.46356e-06
0 0.00122008 0.00122008
0 0.00333333 0.01
0 0.00666667 0.01
0.00968611 0.00883946 -3.56388e-05
0.0110417 0.010069 0.00328593
0.00463427 0.0100223 0.00338219
0.0110707 0.00674093 0.00993984
0 0.00333333 0
0 0.00122008 0.00877992
0.00134946 5.73446e-06 0.00877548
0.00134826 0.00122516 0.00999515
0.00969106 0.0100583 0.00872953
0.00134483 0.00878502 0.00999524
0 0.00877992 0.00877992
0.0110556 0.00885158 0.00872245
0.00733863 0.0100402 -2.6627e-05
0.01109 0.00130765 0.00117664
0.00134344 0.0100049 0.00877458
0.00969918 0.00883958 0.00994848
0.0110806 0.00507757 0.0099399
0 0 0.00333333
0.00738851 5.34818e-05 -2.79523e-05
0.0097383 7.67682e-05 0.00118237
0.00133891 5.66188e-06 0.00120637
0 0.00877992 0.00122008
0.00134211 0.00878484 -4.6774e-06
0.00133233 0.0100049 0.00120703
0.0111011 0.00130634 0.00872247
0.00974403 0.00129255 0.00994911
0.00740096 5.21363e-05 0.0099643
0.00972962 0.00129413 -3.58753e-05
0.00974915 7.56692e-05 0.00873053
0.0110762 0.00341554 -4.14099e-05
0.00367307 0.0100171 0.00998363
0.00270214 0.0100111 0.00134656
0.00735262 0.0100403 0.00996274
0.0110908 0.00341467 0.00994025
0 0.01 0.005
0.0028861 0.00849886 -1.01501e-05
0.0110441 0.0100687 0.00494984
0 0.01 0.00333333
0 0.00166667 0
0.011099 9.16101e-05 0.00162211
0 0.00166667 0.01
0 0.00833333 0
0.0110472 0.00840548 -4.08733e-05
0.0111088 9.05961e-05 0.00827666
0.0110399 0.0100693 0.00162263
0.0110498 0.0100691 0.00827618
0.00183547 0.0100074 0.00999274
0 0.01 0.00833333
0.00918409 0.0100538 -3.4261e-05
0.00924074 7.23321e-05 -3.46975e-05
0.00925475 7.08342e-05 0.00995274
0.00919819 0.0100547 0.00995152
0 0 0.00833333
0.0110611 0.00840575 0.00993986
0.00184367 9.56472e-06 -6.60503e-06
0 0 0.00166667
0.00366336 0.0100166 -1.30231e-05
0.0111013 0.00175186 0.00994035
0.0110868 0.00175323 -4.1508e-05
0.00184576 8.84816e-06 0.00999296
0.00183147 0.0100072 -6.5531e-06
0 0.01 0.00166667
0.0110523 0.0100696 0.00993991
0 0 0.01
0.0110386 0.0100695 -4.10663e-05
0.0111118 9.02393e-05 0.00994102
0 0.01 0.01
0.0110975 9.22187e-05 -4.2135e-05
0 0.01 0
0 0 0
0.00549934 0.0100279 -1.9534e-05
0.003697 2.06528e-05 0.00998459
0 0.00833333 0.01

CELLS 343 686
1 0
1 1
1 2
1 3
1 4
1 5
1 6
1 7
1 8
1 9
1 10
1 11
1 12
1 13
1 14
1 15
1 16
1 17
1 18
1 19
1 20
1 21
1 22
1 23
1 24
1 25
1 26
1 27
1 28
1 29
1 30
1 31
1 32
1 33
1 34
1 35
1 36
1 37
1 38
1 39
1 40
1 41
1 42
1 43
1 44
1 45
1 46
1 47
1 48
1 49
1 50
1 51
1 52
1 53
1 54
1 55
1 56
1 57
1 58
1 59
1 60
1 61
1 62
1 63
1 64
1 65
1 66
1 67
1 68
1 69
1 70
1 71
1 72
1 73
1 74
1 75
1 76
1 77
1 78
1 79
1 80
1 81
1 82
1 83
1 84
1 85
1 86
1 87
1 88
1 89
1 90
1 91
1 92
1 93
1 94
1 95
1 96
1 97
1 98
1 99
1 100
1 101
1 102
1 103
1 104
1 105
1 106
1 107
1 108
1 109
1 110
1 111
1 112
1 113
1 114
1 115
1 116
1 117
1 118
1 119
1 120
1 121
1 122
1 123
1 124
1 125
1 126
1 127
1 128
1 129
1 130
1 131
1 132
1 133
1 134
1 135
1 136
1 137
1 138
1 139
1 140
1 141
1 142
1 143
1 144
1 145
1 146
1 147
1 148
1 149
1 150
1 151
1 152
1 153
1 154
1 155
1 156
1 157
1 158
1 159
1 160
1 161
1 162
1 163
1 164
1 165
1 166
1 167
1 168
1 169
1 170
1 171
1 172
1 173
1 174
1 175
1 176
1 177
1 178
1 179
1 180
1 181
1 182
1 183
1 184
1 185
1 186
1 187
1 188
1 189
1 190
1 191
1 192
1 193
1 194
1 195
1 196
1 197
1 198
1 199
1 200
1 201
1 202
1 203
1 204
1 205
1 206
1 207
1 208
1 209
1 210
1 211
1 212
1 213
1 214
1 215
1 216
1 217
1 218
1 219
1 220
1 221
1 222
1 223
1 224
1 225
1 226
1 227
1 228
1 229
1 230
1 231
1 232
1 233
1 234
1 235
1 236
1 237
1 238
1 239
1 240
1 241
1 242
1 243
1 244
1 245
1 246
1 247
1 248
1 249
1 250
1 251
1 252
1 253
1 254
1 255
1 256
1 257
1 258
1 259
1 260
1 261
1 262
1 263
1 264
1 265
1 266
1 267
1 268
1 269
1 270
1 271
1 272
1 273
1 274
1 275
1 276
1 277
1 278
1 279
1 280
1 281
1 282
1 283
1 284
1 285
1 286
1 287
1 288
1 289
1 290
1 291
1 292
1 293
1 294
1 295
1 296
1 297
1 298
1 299
1 300
1 301
1 302
1 303
1 304
1 305
1 306
1 307
1 308
1 309
1 310
1 311
1 312
1 313
1 314
1 315
1 316
1 317
1 318
1 319
1 320
1 321
1 322
1 323
1 324
1 325
1 326
1 327
1 328
1 329
1 330
1 331
1 332
1 333
1 334
1 335
1 336
1 337
1 338
1 339
1 340
1 341
1 342

CELL_TYPES 343
1
1
1
1
1
1
1
1
1
1
1
1
1
1
1
1
1
1
1
1
1
1
1
1
1
1
1
1
1
1
1
1
1
1
1
1
1
1
1
1
1
1
1
1
1
1
1
1
1
1
1
1
1
1
1
1
1
1
1
1
1
1
1
1
1
1
1
1
1
1
1
1
1
1
1
1
1
1
1
1
1
1
1
1
1
1
1
1
1
1
1
1
1
1
1
1
1
1
1
1
1
1
1
1
1
1
1
1
1
1
1
1
1
1
1
1
1
1
1
1
1
1
1
1
1
1
1
1
1
1
1
1
1
1
1
1
1
1
1
1
1
1
1
1
1
1
1
1
1
1
1
1
1
1
1
1
1
1
1
1
1
1
1
1
1
1
1
1
1
1
1
1
1
1
1
1
1
1
1
1
1
1
1
1
1
1
1
1
1
1
1
1
1
1
1
1
1
1
1
1
1
1
1
1
1
1
1
1
1
1
1
1
1
1
1
1
1
1
1
1
1
1
1
1
1
1
1
1
1
1
1
1
1
1
1
1
1
1
1
1
1
1
1
1
1
1
1
1
1
1
1
1
1
1
1
1
1
1
1
1
1
1
1
1
1
1
1
1
1
1
1
1
1
1
1
1
1
1
1
1
1
1
1
1
1
1
1
1
1
1
1
1
1
1
1
1
1
1
1
1
1
1
1
1
1
1
1
1
1
1
1
1
1
1
1
1
1
1
1
1
1
1
1
1
1
1
1
1
1
1
1
1
1
1
1
1
1
1
1
1
1
1
1

POINT_DATA 343
FIELD FieldData 3

ExternalForceID_(#) 1 343 int
0
1
2
3
4
5
6
7
8
9
10
11
12
13
14
15
16
17
18
19
20
21
22
23
24
25
26
27
28
29
30
31
32
33
34
35
36
37
38
39
40
41
42
43
44
45
46
47
48
49
50
51
52
53
54
55
56
57
58
59
60
61
62
63
64
65
66
67
68
69
70
71
72
73
74
75
76
77
78
79
80
81
82
83
84
85
86
87
88
89
90
91
92
93
94
95
96
97
98
99
100
101
102
103
104
105
106
107
108
109
110
111
112
113
114
115
116
117
118
119
120
121
122
123
124
125
126
127
128
129
130
131
132
133
134
135
136
137
138
139
140
141
142
143
144
145
146
147
148
149
150
151
152
153
154
155
156
157
158
159
160
161
162
163
164
165
166
167
168
169
170
171
172
173
174
175
176
177
178
179
180
181
182
183
184
185
186
187
188
189
190
191
192
193
194
195
196
197
198
199
200
201
202
203
204
205
206
207
208
209
210
211
212
213
214
215
216
217
218
219
220
221
222
223
224
225
226
227
228
229
230
231
232
233
234
235
236
237
238
239
240
241
242
243
244
245
246
247
248
249
250
251
252
253
254
255
256
257
258
259
260
261
262
263
264
265
266
267
268
269
270
271
272
273
274
275
276
277
278
279
280
281
282
283
284
285
286
287
288
289
290
291
292
293
294
295
296
297
298
299
300
301
302
303
304
305
306
307
308
309
310
311
312
313
314
315
316
317
318
319
320
321
322
323
324
325
326
327
328
329
330
331
332
333
334
335
336
337
338
339
340
341
342

ExternalForceType_(0/1/2/3/4) 1 343 int
0
0
0
0
0
0
0
0
0
0
0
0
0
0
0
0
0
0
0
0
0
0
0
0
0
0
0
0
0
0
0
0
0
0
0
0
0
0
0
0
0
0
0
0
0
0
0
0
0
0
0
0
0
0
0
0
0
0
0
0
0
0
0
0
0
0
0
0
0
0
0
0
0
0
0
0
0
0
0
0
0
0
0
0
0
0
0
0
0
0
0
0
0
0
0
0
0
0
0
0
0
0
0
0
0
0
0
0
0
0
0
0
0
0
0
0
0
0
0
0
0
0
0
0
0
0
0
0
0
0
0
0
0
0
0
0
0
0
0
0
0
0
0
0
0
0
0
0
0
0
0
0
0
0
0
0
0
0
0
0
0
0
0
0
0
0
0
0
0
0
0
0
0
0
0
0
0
0
0
0
0
0
0
0
0
0
0
0
0
0
0
0
0
0
0
0
0
0
0
0
0
0
0
0
0
0
0
0
0
0
0
0
0
0
0
0
0
0
0
0
0
0
0
0
0
0
0
0
0
0
0
0
0
0
0
0
0
0
0
0
0
0
0
0
0
0
0
0
0
0
0
0
0
0
0
0
0
0
0
0
0
0
0
0
0
0
0
0
0
0
0
0
0
0
0
0
0
0
0
0
0
0
0
0
0
0
0
0
0
0
0
0
0
0
0
0
0
0
0
0
0
0
0
0
0
0
0
0
0
0
0
0
0
0
0
0
0
0
0
0
0
0
0
0
0
0
0
0
0
0
0
0
0
0
0
0
0
0
0
0
0
0
0

ExternalForce_(N) 3 343 double
0 -3.09568e-05 0
0 -0.000138619 0
0 -2.16714e-05 0
0 -0.000168226 0
0 -8.26002e-05 0
0 -8.9203e-05 0
0 -9.74165e-05 0
0 -7.37906e-05 0
0 -6.68156e-05 0
0 -5.47617e-05 0
0 -3.04981e-05 0
0 -0.000105531 0
0 -4.77758e-05 0
0 -0.000161821 0
0 -2.96713e-05 0
0 -7.9067e-05 0
0 -6.57564e-05 0
0 -0.000106704 0
0 -4.11017e-05 0
0 -8.006e-05 0
0 -6.02474e-05 0
0 -0.000115662 0
0 -2.18875e-05 0
0 -4.17098e-05 0
0 -0.000107827 0
0 -7.27379e-05 0
0 -4.13856e-05 0
0 -3.85027e-05 0
0 -3.029e-05 0
0 -0.000128774 0
0 -7.57947e-05 0
0 -0.000162261 0
0 -0.000116775 0
0 -7.15802e-05 0
0 -3.74431e-05 0
0 -0.000108892 0
0 -3.74072e-05 0
0 -0.000136493 0
0 -6.25303e-05 0
0 -7.85756e-05 0
0 -7.52544e-05 0
0 -0.000116589 0
0 -0.000160874 0
0 -2.73339e-05 0
0 -8.7662e-05 0
0 -2.53184e-05 0
0 -7.42972e-05 0
0 -4.15199e-05 0
0 -0.000128792 0
0 -3.72945e-05 0
0 -2.72189e-05 0
0 -7.03157e-05 0
0 -0.000119003 0
0 -5.02041e-05 0
0 -8.04153e-05 0
0 -4.4939e-05 0
0 -2.74192e-05 0
0 -3.19929e-05 0
0 -4.04607e-05 0
0 -2.07889e-05 0
0 -3.28809e-05 0
0 -3.54797e-05 0
0 -0.000153858 0
0 -7.19739e-05 0
0 -8.09026e-05 0
0 -4.90862e-05 0
0 -2.77255e-05 0
0 -7.06591e-05 0
0 -3.20606e-05 0
0 -4.10794e-05 0
0 -1.98932e-05 0
0 -2.37551e-05 0
0 -3.0591e-05 0
0 -5.86107e-05 0
0 -5.75946e-05 0
0 -4.01595e-05 0
0 -5.35099e-05 0
0 -2.24477e-05 0
0 -4.41213e-05 0
0 -4.29866e-05 0
0 -4.42325e-05 0
0 -4.30889e-05 0
0 -4.19155e-05 0
0 -5.21923e-05 0
0 -1.5029e-05 0
0 -2.34331e-05 0
0 -1.9903e-05 0
0 -4.30461e-05 0
0 -3.11931e-05 0
0 -3.08326e-05 0
0 -4.52797e-05 0
0 -5.7648e-05 0
0 -8.02544e-05 0
0 -2.43623e-05 0
0 -0.000150893 0
0 -3.43039e-05 0
0 -7.21258e-05 0
0 -1.97489e-05 0
0 -2.00202e-05 0
0 -7.83017e-05 0
0 -4.32908e-05 0
0 -7.00326e-05 0
0 -1.17841e-05 0
0 -4.93779e-05 0
0 -1.58193e-05 0
0 -4.04762e-05 0
0 -8.57147e-05 0
0 -4.2953e-05 0
0 -7.82027e-05 0
0 -2.09499e-05 0
0 -3.31713e-05 0
0 -9.30599e-05 0
0 -7.26197e-05 0
0 -1.76801e-05 0
0 -2.06228e-05 0
0 -7.8371e-05 0
0 -1.84411e-05 0
0 -7.30662e-05 0
0 -4.11806e-05 0
0 -2.3265e-05 0
0 -4.23503e-05 0
0 -5.94919e-05 0
0 -4.22718e-05 0
0 -2.12723e-05 0
0 -1.86252e-05 0
0 -1.77849e-05 0
0 -3.82356e-05 0
0 -2.39658e-05 0
0 -1.62481e-05 0
0 -7.86148e-05 0
0 -1.61387e-05 0
0 -2.34763e-05 0
0 -2.95637e-05 0
0 -2.93742e-05 0
0 -1.33947e-05 0
0 -1.83735e-05 0
0 -2.05639e-05 0
0 -1.91062e-05 0
0 -1.84053e-05 0
0 -6.25793e-05 0
0 -4.49914e-05 0
0 -1.98914e-05 0
0 -1.58922e-05 0
0 -2.367e-05 0
0 -3.81266e-05 0
0 -4.36518e-05 0
0 -2.25472e-05 0
0 -0.000115119 0
0 -3.05886e-05 0
0 -1.32828e-05 0
0 -3.38507e-05 0
0 -1.78391e-05 0
0 -2.88237e-05 0
0 -1.34771e-05 0
0 -2.36876e-05 0
0 -2.06453e-05 0
0 -2.58912e-05 0
0 -2.10097e-05 0
0 -1.7602e-05 0
0 -3.13896e-05 0
0 -1.34386e-05 0
0 -2.38863e-05 0
0 -2.04203e-05 0
0 -1.33426e-05 0
0 -2.13076e-05 0
0 -1.86316e-05 0
0 -3.10974e-05 0
0 -2.56228e-05 0
0 -2.33161e-05 0
0 -1.57181e-05 0
0 -1.87061e-05 0
0 -5.38771e-05 0
0 -1.84308e-05 0
0 -3.08341e-05 0
0 -2.91652e-05 0
0 -1.16203e-05 0
0 -1.85667e-05 0
0 -2.00287e-05 0
0 -2.68375e-05 0
0 -2.37799e-05 0
0 -3.16945e-05 0
0 -3.13676e-05 0
0 -3.15313e-05 0
0 -1.90796e-05 0
0 -1.58134e-05 0
0 -1.83326e-05 0
0 -3.16308e-05 0
0 -2.07128e-05 0
0 -2.91276e-05 0
0 -6.03597e-05 0
0 -2.26581e-05 0
0 -2.35174e-05 0
0 -2.33506e-05 0
0 -2.59482e-05 0
0 -1.63393e-05 0
0 -1.78912e-05 0
0 -2.02658e-05 0
0 -5.62379e-05 0
0 -2.04507e-05 0
0 -2.14176e-05 0
0 -2.38895e-05 0
0 -3.05955e-05 0
0 -3.11287e-05 0
0 -2.01544e-05 0
0 -1.92198e-05 0
0 -2.99909e-05 0
0 -6.32085e-05 0
0 -2.04829e-05 0
0 -2.67435e-05 0
0 -2.11611e-05 0
0 -1.83262e-05 0
0 -1.96474e-05 0
0 -2.0699e-05 0
0 -2.83503e-05 0
0 -2.27807e-05 0
0 -2.35234e-05 0
0 -1.93874e-05 0
0 -6.29086e-05 0
0 -2.12117e-05 0
0 -3.22943e-05 0
0 -2.06229e-05 0
0 -2.61501e-05 0
0 -1.90721e-05 0
0 -2.86319e-05 0
0 -2.53212e-05 0
0 -2.07681e-05 0
0 -2.05553e-05 0
0 -1.88077e-05 0
0 -6.92631e-05 0
0 -2.20924e-05 0
0 -2.02457e-05 0
0 -6.16224e-05 0
0 -2.08117e-05 0
0 -2.85397e-05 0
0 -2.08875e-05 0
0 -6.32617e-05 0
0 -1.39008e-05 0
0 -2.0289e-05 0
0 -6.45558e-05 0
0 -2.47785e-05 0
0 -2.35177e-05 0
0 -7.28089e-06 0
0 -2.18143e-05 0
0 -6.93323e-06 0
0 -6.87344e-06 0
0 -8.76768e-06 0
0 -2.48719e-05 0
0 -2.22231e-05 0
0 -1.31068e-05 0
0 -7.69816e-06 0
0 -2.27889e-05 0
0 -5.95166e-06 0
0 -6.55579e-06 0
0 -6.71305e-06 0
0 -2.46468e-05 0
0 -2.27228e-05 0
0 -7.6878e-06 0
0 -6.67903e-06 0
0 -6.10861e-05 0
0 -6.6189e-06 0
0 -6.52665e-06 0
0 -6.87836e-06 0
0 -1.78856e-05 0
0 -1.87072e-05 0
0 -6.73674e-06 0
0 -6.91401e-06 0
0 -1.82903e-05 0
0 -2.2423e-05 0
0 -6.67521e-06 0
0 -7.02401e-06 0
0 -1.78908e-05 0
0 -5.89658e-06 0
0 -1.98938e-05 0
0 -7.3162e-06 0
0 -5.63509e-06 0
0 -1.76631e-05 0
0 -1.42638e-05 0
0 -2.22707e-05 0
0 -1.77204e-05 0
0 -2.11264e-05 0
0 -1.75686e-05 0
0 -1.76047e-05 0
0 -6.69346e-06 0
0 -2.20467e-05 0
0 -1.42479e-05 0
0 -1.76144e-05 0
0 -6.84615e-06 0
0 -6.12404e-06 0
0 -6.50125e-06 0
0 -1.41879e-05 0
0 -1.37476e-05 0
0 -2.11168e-05 0
0 -1.79377e-05 0
0 -1.37282e-05 0
0 -1.41198e-05 0
0 -2.15061e-05 0
0 -6.84475e-06 0
0 -1.74349e-05 0
0 -1.75758e-05 0
0 -6.41828e-06 0
0 -7.20025e-06 0
0 -2.30432e-05 0
0 -6.96894e-06 0
0 -6.44499e-06 0
0 -6.14414e-06 0
0 -2.14766e-05 0
0 -6.00855e-06 0
0 -5.92427e-06 0
0 -5.81567e-06 0
0 -5.02303e-06 0
0 -5.01945e-06 0
0 -4.85271e-06 0
0 -4.87573e-06 0
0 -4.8684e-06 0
0 -5.22951e-06 0
0 -4.84801e-06 0
0 -4.88396e-06 0
0 -4.77612e-06 0
0 -4.81304e-06 0
0 -4.85251e-06 0
0 -4.8555e-06 0
0 -4.82575e-06 0
0 -4.80313e-06 0
0 -4.86923e-06 0
0 -4.85781e-06 0
0 -4.73027e-06 0
0 -1.08748e-05 0
0 -5.22863e-06 0
0 -5.34413e-06 0
0 -5.26459e-06 0
0 -5.05624e-06 0
0 -4.92238e-06 0
0 -5.43253e-06 0
0 -5.43253e-06 0
0 -5.43253e-06 0
0 -5.43253e-06 0
0 -5.43253e-06 0
0 -5.43253e-06 0
0 -5.40321e-06 0
0 -5.40321e-06 0
0 -7.3113e-06 0
0 -6.98147e-06 0
0 -4.8949e-06 0

