# vtk DataFile Version 4.2
vtk output
ASCII
DATASET UNSTRUCTURED_GRID

POINTS 343 double
0.00113687 0.00419585 -4.22868e-07
0.00219793 0.00498481 0.00217406
0 0.00419538 0.00112517
0.0019578 0.00195664 0.00194098
0.00525351 0.00242253 0.00502762
0.00525048 0.00384326 0.00639214
0.00773616 0.0048028 0.00499056
0.00631272 0.0048689 0.0036867
0.00694674 0.00331272 0.00690509
0.00505966 0.00500401 0.00499564
0.0042562 0.00113067 0.00999393
0.00537125 0.0020971 0.00789772
0.00426966 6.1729e-06 0.00831283
0.00204291 0.00200455 0.00803188
0.00435818 0.00254377 0.00999368
0.00705101 0.00646772 0.00693793
0.00649898 0.00620061 0.00517678
0.00229405 0.00218746 0.00514476
0 0.00143586 0.00417514
0.00161625 0.00346742 0.00403635
0.00694505 0.00321879 0.00315584
0.0078769 0.00224538 0.00505509
0 0.00270918 0.00154168
0.00422693 0.00144153 -1.8298e-06
0.00508884 0.00220368 0.00219402
0.00401913 0.00353502 0.00160045
0.00136747 6.15744e-07 0.00405918
0.00425895 6.15809e-06 0.001685
0.0026562 0.00695495 -9.75891e-07
0.00195883 0.00805446 0.00194373
0.00413747 0.00625499 0.00164248
0.00810718 0.00801253 0.00798501
0.00808774 0.00484464 0.00800994
0.00850878 0.00611036 0.00593732
0.0101323 0.00886518 0.00418059
0.00767236 0.00766004 0.00495575
0.00866583 0.0100094 0.00415791
0.00807461 0.00799801 0.00200992
0.0035897 0.00304318 0.00695672
0.00450597 0.00367158 0.0083188
0.00395749 0.00161079 0.00596581
0.00506616 0.00767959 0.00767101
0.00201249 0.00800992 0.00798869
0.00285455 0.0100013 0.00712572
0.00395905 0.00840693 0.00595501
0 0.00695361 0.00262895
0.00166625 0.00624085 0.00408702
0 0.0040177 0.00850214
0.0023451 0.00498813 0.00766017
0.00145288 0.00417574 0.00999926
0.0072739 0.00713996 0.00998623
0.0062037 0.00598714 0.0084088
0.00207485 0.00794332 0.00474079
0.00308041 0.00694679 0.00646599
0.00160657 0.00607973 0.00592516
0.0101454 0.00582565 0.00829789
0 0.00718191 0.00711644
0.0016032 0.00577501 -6.07502e-07
0 0.00577432 0.00158701
0.0101403 0.00719783 0.00709856
0.00291175 0.0033538 0.00999659
0.0101502 0.0014588 0.00416208
0.00817254 0.00197804 0.00197232
0.00852387 0.00353644 0.00398938
0.00378713 0.00165771 0.00412546
0.00152402 0.0100005 0.00581438
0.00286186 3.13757e-06 0.00712567
0.00620461 0.00418928 0.00836738
0.0101353 0.00728949 0.00418265
0.00868912 1.97195e-05 0.00415771
0.00339018 0.00287615 -1.25719e-06
0.00274682 0.00154409 0.00999679
0.00286944 3.32525e-06 0.00283018
0.00486585 0.00520435 0.00754875
0.00320354 0.00315133 0.00316519
0 0.00849157 0.00581511
0.00493676 0.00368167 0.0037823
0.00155802 0.00270974 -5.5394e-07
0.00587267 0.00833115 0.00998976
0.00605068 0.0100051 0.00849626
0.00425856 0.0100029 0.00831266
0.00406635 0.00850681 0.00999433
0.0101354 0.00850644 0.00579943
0.00318451 0.00683782 0.0031487
0 0.00748929 0.00137438
0.0013881 0.00748977 -5.02064e-07
0 0.00287343 0.00335182
0 0.00580816 0.00831736
0 0.00429792 0.00253898
0.00256607 0.0042993 -8.78739e-07
0.00145246 0.00582028 0.00999923
0.00524186 0.00648031 0.00639486
0.0036502 0.00651448 0.00823033
0.0070534 0.00263895 0.00998692
0.00814142 0.00197401 0.00802158
0.00707085 1.39782e-05 0.00307551
0.0061028 0.00167447 0.0036074
0.0101452 0.00289457 0.00334007
0 0.00140616 0.00256446
0.00644968 0.0082346 0.00641311
0.00589559 0.00144526 -3.00668e-06
0.00611377 0.00356048 0.00159887
0.00318741 0.0100019 0.00582284
0.00866284 0.0100095 0.00582106
0.00259451 0.00140871 -9.07162e-07
0.00605997 1.10722e-05 0.00148972
0.00635243 0.00829434 0.00361172
0.008686 1.95802e-05 0.00582072
0.00629418 0.00168325 0.00635749
0.00142318 0.00256493 0.00999926
0.00719918 0.00719004 -4.37362e-06
0.00522319 0.00769463 0.00216542
0.00601244 0.00609941 0.00159781
0 0.00686719 0.00578184
0.0101484 0.0014293 0.00255367
0.0017967 0.00361149 0.0064068
0.0101312 0.00850178 0.00261285
0.00852145 0.00620172 0.00412309
0.00604204 0.010005 0.00149001
0.00707481 1.41804e-05 0.00691637
0.0101526 0.00145825 0.00580368
0.00851598 0.00358822 0.00604839
0.00152652 7.83605e-07 0.00581439
0 0.0013659 0.00748679
0.00138613 8.13431e-07 0.00752837
0.0101385 0.00688312 0.00576639
0.00587798 0.00849682 -2.97222e-06
0 0.0075208 0.00859127
0.00138184 0.00748749 0.00999919
0.00427628 0.00820893 0.00362538
0.00869919 0.0100098 0.00749719
0.0101382 0.00864487 0.00750795
0.00586017 0.00159613 0.00998987
0.00736307 0.00419856 0.00998604
0 0.0057735 0.00666667
0.00138412 0.0100004 0.00752824
0 0.00863025 0.00752641
0.00871445 2.00094e-05 0.00249887
0.0101342 0.0069692 0.00261807
0.00856661 0.00635441 0.00215547
0.0086296 0.00583659 0.00998251
0.0076041 0.00138865 0.00998535
0.00872248 1.98862e-05 0.00749736
0.0101559 0.00138883 0.00746823
0 0.00143551 0.00581971
0.00606764 1.09756e-05 0.00849661
0.00427049 6.48054e-06 0.00339668
0.00803678 0.00472014 0.00202794
0.0101406 0.0043175 0.00252868
0.00427336 0.0100029 0.00666251
0.00286174 0.0100014 0.00283027
0.00132807 6.63146e-07 0.00241743
0 0.00727418 0.00419576
0.0101427 0.00579132 0.00664956
0.00705136 0.0100067 0.00307554
0.00760541 0.00864576 0.00998525
0 0.00574334 0.00336387
0 0.0043297 0.00416652
0.00696373 0.00579247 0.00998686
0.0101502 0.00304319 0.00689759
0.0042852 6.44663e-06 0.00666243
0.00250496 0.0100011 0.00860944
0.00758847 0.00138062 -4.76006e-06
0.00585037 0.00667235 0.00998984
0.0101423 0.00753654 0.00857153
0.00872643 0.00756522 0.00998216
0.007004 0.0030335 -4.26446e-06
0.00339991 0.00574518 -1.425e-06
0.0076127 0.00863861 -4.93153e-06
0.00760013 0.0100076 0.00138158
0.00584653 0.00687278 -3.0108e-06
0.00705942 0.00637897 0.0030272
0.00762094 1.61764e-05 0.00138161
0.00292151 0.00500089 0.00999655
0.00438746 0.00583672 0.00999336
0.00438855 0.00417036 0.00999338
0.00760959 0.010008 0.00860209
0.00251084 2.90615e-06 0.00860963
0.0101377 0.00576153 0.00335223
0 0.00302218 0.00691532
0.0101504 0.00403748 0.0084824
0.00861381 0.00403292 -5.62541e-06
0.0101438 0.00273059 0.00153266
0 0.00244495 0.00857025
0.00247504 0.00857187 0.00999728
0.00763065 1.61193e-05 0.00860243
0.0086158 0.00263998 0.0099826
0.00898222 0.00420949 0.00998154
0.00573419 0.0100047 0.00582696
0.00524581 0.00758814 0.00502751
0.00570407 0.0100047 0.00421021
0.00705492 0.0100068 0.00691644
0.00306049 0.00691688 0.00999625
0.00421361 0.00433306 -1.9738e-06
0.00287227 3.29144e-06 0.00440253
0.0031955 3.82885e-06 0.00582288
0.0101396 0.00421517 0.00111658
0.00367598 0.00834016 0.00158599
0.0101423 0.00434902 0.00415317
0.00674554 0.00578161 -3.86431e-06
0.00869105 0.0100095 0.0024989
0 0.00848692 0.00262374
0.00136557 0.0100005 0.00405931
0 0.00885053 0.00419359
0.00423699 0.00885367 -2.00387e-06
0.00424692 0.0100029 0.0016852
0.00505797 0.00479595 0.00237544
0.00730931 0.00453237 -4.45978e-06
0.00572 1.01304e-05 0.00421027
0.00575006 1.01563e-05 0.00582704
0.00132625 0.0100005 0.00241749
0.00868695 0.0024619 -5.67624e-06
0.0101468 0.00454086 0.0072014
0.00719754 0.0100069 0.004992
0.00582489 0.0033712 0.00999006
0.00248934 2.75651e-06 0.0013551
0.0101549 0.00246674 0.00855028
0.00242286 0.00479261 0.0049984
0.00590356 0.0043373 -3.26916e-06
0.00842139 0.00582049 -5.61263e-06
0.00554231 0.0100044 0.00721334
0.010145 0.00434944 0.00581745
0.00545981 0.0100043 0.00277179
0.00721751 1.45366e-05 0.00499203
0.00286494 0.0100014 0.00440273
0 0.00452174 0.00721958
0.00457949 0.00722354 0.00999297
0.00555766 9.53368e-06 0.00721337
0.00364477 0.00507634 0.00359406
0.00429638 0.0100028 0.00500471
0.00430874 6.67688e-06 0.00500469
0.00371497 0.00521936 0.00617174
0 0.005744 0.00499998
0 0.00433013 0.00583333
0.00505619 0.00574815 -2.57124e-06
0.00504212 0.0063433 0.00354987
0.00547565 9.46964e-06 0.00277149
0.0101399 0.00576231 0.00498543
0.00373295 0.00641018 0.00484138
0.0058227 0.00500612 0.00998999
0.0101359 0.00579236 0.00157803
0 0.00666667 0
0.00869646 0.0075325 -5.90317e-06
0.00337557 5.00431e-06 -1.83213e-06
0 0.01 0.00666667
0.00506311 0.0100039 0.0099918
0 0.00288419 0.00499914
0.0101319 0.00750437 0.00136561
0.0101328 0.0066833 -7.86606e-06
0 0.005 0.01
0.00506019 0.00289044 -2.44989e-06
0 0.005 0
0.010154 2.58642e-05 0.00332148
0.0101351 0.0100124 0.00664945
0.00424045 0.0072771 -1.97016e-06
0.0101475 0.0029055 0.00498454
0.00506646 9.0036e-06 -2.96045e-06
0 0 0.00666667
0.00384521 0.00361974 0.00522344
0.00507626 8.53914e-06 0.00999211
0.0101589 2.56384e-05 0.00664929
0 0 0.005
0.00888464 0.0100097 0.001213
0.0101293 0.00879424 0.00121135
0.0101563 2.56942e-05 0.0049853
0.0101371 0.00501879 -7.60791e-06
0.00123329 0.00122081 -4.25287e-07
0 0.00122008 0.00122008
0 0.00333333 0.01
0 0.00666667 0.01
0.00888625 0.00879091 -6.09762e-06
0.01013 0.0100123 0.00332136
0.00425799 0.0100029 0.00339685
0.0101475 0.00668318 0.0099778
0 0.00333333 0
0 0.00122008 0.00877992
0.00123525 9.11641e-07 0.00877936
0.00123494 0.00122068 0.00999932
0.00889546 0.0100103 0.00876253
0.00123406 0.00878057 0.0099993
0 0.00877992 0.00877992
0.01014 0.00879444 0.00875977
0.00673915 0.010006 -4.08937e-06
0.0101476 0.00124374 0.0012113
0.00123349 0.0100004 0.00877904
0.00889971 0.00879141 0.00998153
0.0101515 0.00501852 0.00997781
0 0 0.00333333
0.00675884 1.38544e-05 -4.52141e-06
0.0089082 2.09867e-05 0.00121294
0.00122544 8.27513e-07 0.00121085
0 0.00877992 0.00122008
0.00123211 0.00878038 -4.91907e-07
0.00122359 0.0100005 0.00121106
0.0101587 0.00124333 0.00875964
0.00891803 0.00123905 0.00998169
0.00677094 1.33066e-05 0.0099878
0.00890375 0.0012396 -5.97974e-06
0.00891901 2.06556e-05 0.00876281
0.0101412 0.00335408 -7.51354e-06
0.0033741 0.0100023 0.0099955
0.00248291 0.0100011 0.00135508
0.00675218 0.0100064 0.00998739
0.0101557 0.00335404 0.00997798
0 0.01 0.005
0.00265008 0.00848826 -1.07965e-06
0.0101324 0.0100122 0.00498579
0 0.01 0.00333333
0 0.00166667 0
0.0101521 2.58755e-05 0.00165712
0 0.00166667 0.01
0 0.00833333 0
0.0101296 0.00834785 -7.3964e-06
0.0101618 2.55631e-05 0.00831365
0.010128 0.0100124 0.00165719
0.0101379 0.0100126 0.00831359
0.00168588 0.0100007 0.00999854
0 0.01 0.00833333
0.00843022 0.0100087 -6.02468e-06
0.00845298 1.96906e-05 -5.93391e-06
0.00846684 1.91105e-05 0.00998311
0.00844406 0.0100096 0.00998283
0 0 0.00833333
0.0101437 0.00834842 0.00997786
0.00168664 1.88691e-06 -8.08792e-07
0 0 0.00166667
0.0033663 0.0100019 -1.52571e-06
0.0101602 0.00168931 0.00997799
0.0101457 0.00168971 -7.53989e-06
0.00168903 1.66606e-06 0.00999859
0.00168282 0.0100006 -7.65396e-07
0 0.01 0.00166667
0.0101405 0.0100129 0.00997796
0 0 0.01
0.0101265 0.0100124 -7.56697e-06
0.0101647 2.53077e-05 0.00997824
0 0.01 0.01
0.0101504 2.6174e-05 -7.84869e-06
0 0.01 0
0 0 0
0.00505179 0.0100038 -2.56413e-06
0.00338248 4.28734e-06 0.00999568
0 0.00833333 0.01

CELLS 343 686
1 0
1 1
1 2
1 3
1 4
1 5
1 6
1 7
1 8
1 9
1 10
1 11
1 12
1 13
1 14
1 15
1 16
1 17
1 18
1 19
1 20
1 21
1 22
1 23
1 24
1 25
1 26
1 27
1 28
1 29
1 30
1 31
1 32
1 33
1 34
1 35
1 36
1 37
1 38
1 39
1 40
1 41
1 42
1 43
1 44
1 45
1 46
1 47
1 48
1 49
1 50
1 51
1 52
1 53
1 54
1 55
1 56
1 57
1 58
1 59
1 60
1 61
1 62
1 63
1 64
1 65
1 66
1 67
1 68
1 69
1 70
1 71
1 72
1 73
1 74
1 75
1 76
1 77
1 78
1 79
1 80
1 81
1 82
1 83
1 84
1 85
1 86
1 87
1 88
1 89
1 90
1 91
1 92
1 93
1 94
1 95
1 96
1 97
1 98
1 99
1 100
1 101
1 102
1 103
1 104
1 105
1 106
1 107
1 108
1 109
1 110
1 111
1 112
1 113
1 114
1 115
1 116
1 117
1 118
1 119
1 120
1 121
1 122
1 123
1 124
1 125
1 126
1 127
1 128
1 129
1 130
1 131
1 132
1 133
1 134
1 135
1 136
1 137
1 138
1 139
1 140
1 141
1 142
1 143
1 144
1 145
1 146
1 147
1 148
1 149
1 150
1 151
1 152
1 153
1 154
1 155
1 156
1 157
1 158
1 159
1 160
1 161
1 162
1 163
1 164
1 165
1 166
1 167
1 168
1 169
1 170
1 171
1 172
1 173
1 174
1 175
1 176
1 177
1 178
1 179
1 180
1 181
1 182
1 183
1 184
1 185
1 186
1 187
1 188
1 189
1 190
1 191
1 192
1 193
1 194
1 195
1 196
1 197
1 198
1 199
1 200
1 201
1 202
1 203
1 204
1 205
1 206
1 207
1 208
1 209
1 210
1 211
1 212
1 213
1 214
1 215
1 216
1 217
1 218
1 219
1 220
1 221
1 222
1 223
1 224
1 225
1 226
1 227
1 228
1 229
1 230
1 231
1 232
1 233
1 234
1 235
1 236
1 237
1 238
1 239
1 240
1 241
1 242
1 243
1 244
1 245
1 246
1 247
1 248
1 249
1 250
1 251
1 252
1 253
1 254
1 255
1 256
1 257
1 258
1 259
1 260
1 261
1 262
1 263
1 264
1 265
1 266
1 267
1 268
1 269
1 270
1 271
1 272
1 273
1 274
1 275
1 276
1 277
1 278
1 279
1 280
1 281
1 282
1 283
1 284
1 285
1 286
1 287
1 288
1 289
1 290
1 291
1 292
1 293
1 294
1 295
1 296
1 297
1 298
1 299
1 300
1 301
1 302
1 303
1 304
1 305
1 306
1 307
1 308
1 309
1 310
1 311
1 312
1 313
1 314
1 315
1 316
1 317
1 318
1 319
1 320
1 321
1 322
1 323
1 324
1 325
1 326
1 327
1 328
1 329
1 330
1 331
1 332
1 333
1 334
1 335
1 336
1 337
1 338
1 339
1 340
1 341
1 342

CELL_TYPES 343
1
1
1
1
1
1
1
1
1
1
1
1
1
1
1
1
1
1
1
1
1
1
1
1
1
1
1
1
1
1
1
1
1
1
1
1
1
1
1
1
1
1
1
1
1
1
1
1
1
1
1
1
1
1
1
1
1
1
1
1
1
1
1
1
1
1
1
1
1
1
1
1
1
1
1
1
1
1
1
1
1
1
1
1
1
1
1
1
1
1
1
1
1
1
1
1
1
1
1
1
1
1
1
1
1
1
1
1
1
1
1
1
1
1
1
1
1
1
1
1
1
1
1
1
1
1
1
1
1
1
1
1
1
1
1
1
1
1
1
1
1
1
1
1
1
1
1
1
1
1
1
1
1
1
1
1
1
1
1
1
1
1
1
1
1
1
1
1
1
1
1
1
1
1
1
1
1
1
1
1
1
1
1
1
1
1
1
1
1
1
1
1
1
1
1
1
1
1
1
1
1
1
1
1
1
1
1
1
1
1
1
1
1
1
1
1
1
1
1
1
1
1
1
1
1
1
1
1
1
1
1
1
1
1
1
1
1
1
1
1
1
1
1
1
1
1
1
1
1
1
1
1
1
1
1
1
1
1
1
1
1
1
1
1
1
1
1
1
1
1
1
1
1
1
1
1
1
1
1
1
1
1
1
1
1
1
1
1
1
1
1
1
1
1
1
1
1
1
1
1
1
1
1
1
1
1
1
1
1
1
1
1
1
1
1
1
1
1
1
1
1
1
1
1
1
1
1
1
1
1
1
1
1
1
1
1
1
1
1
1
1
1
1

POINT_DATA 343
FIELD FieldData 3

ExternalForceID_(#) 1 343 int
0
1
2
3
4
5
6
7
8
9
10
11
12
13
14
15
16
17
18
19
20
21
22
23
24
25
26
27
28
29
30
31
32
33
34
35
36
37
38
39
40
41
42
43
44
45
46
47
48
49
50
51
52
53
54
55
56
57
58
59
60
61
62
63
64
65
66
67
68
69
70
71
72
73
74
75
76
77
78
79
80
81
82
83
84
85
86
87
88
89
90
91
92
93
94
95
96
97
98
99
100
101
102
103
104
105
106
107
108
109
110
111
112
113
114
115
116
117
118
119
120
121
122
123
124
125
126
127
128
129
130
131
132
133
134
135
136
137
138
139
140
141
142
143
144
145
146
147
148
149
150
151
152
153
154
155
156
157
158
159
160
161
162
163
164
165
166
167
168
169
170
171
172
173
174
175
176
177
178
179
180
181
182
183
184
185
186
187
188
189
190
191
192
193
194
195
196
197
198
199
200
201
202
203
204
205
206
207
208
209
210
211
212
213
214
215
216
217
218
219
220
221
222
223
224
225
226
227
228
229
230
231
232
233
234
235
236
237
238
239
240
241
242
243
244
245
246
247
248
249
250
251
252
253
254
255
256
257
258
259
260
261
262
263
264
265
266
267
268
269
270
271
272
273
274
275
276
277
278
279
280
281
282
283
284
285
286
287
288
289
290
291
292
293
294
295
296
297
298
299
300
301
302
303
304
305
306
307
308
309
310
311
312
313
314
315
316
317
318
319
320
321
322
323
324
325
326
327
328
329
330
331
332
333
334
335
336
337
338
339
340
341
342

ExternalForceType_(0/1/2/3/4) 1 343 int
0
0
0
0
0
0
0
0
0
0
0
0
0
0
0
0
0
0
0
0
0
0
0
0
0
0
0
0
0
0
0
0
0
0
0
0
0
0
0
0
0
0
0
0
0
0
0
0
0
0
0
0
0
0
0
0
0
0
0
0
0
0
0
0
0
0
0
0
0
0
0
0
0
0
0
0
0
0
0
0
0
0
0
0
0
0
0
0
0
0
0
0
0
0
0
0
0
0
0
0
0
0
0
0
0
0
0
0
0
0
0
0
0
0
0
0
0
0
0
0
0
0
0
0
0
0
0
0
0
0
0
0
0
0
0
0
0
0
0
0
0
0
0
0
0
0
0
0
0
0
0
0
0
0
0
0
0
0
0
0
0
0
0
0
0
0
0
0
0
0
0
0
0
0
0
0
0
0
0
0
0
0
0
0
0
0
0
0
0
0
0
0
0
0
0
0
0
0
0
0
0
0
0
0
0
0
0
0
0
0
0
0
0
0
0
0
0
0
0
0
0
0
0
0
0
0
0
0
0
0
0
0
0
0
0
0
0
0
0
0
0
0
0
0
0
0
0
0
0
0
0
0
0
0
0
0
0
0
0
0
0
0
0
0
0
0
0
0
0
0
0
0
0
0
0
0
0
0
0
0
0
0
0
0
0
0
0
0
0
0
0
0
0
0
0
0
0
0
0
0
0
0
0
0
0
0
0
0
0
0
0
0
0
0
0
0
0
0
0
0
0
0
0
0
0
0
0
0
0
0
0
0
0
0
0
0
0
0
0
0
0
0
0

ExternalForce_(N) 3 343 double
0 -3.09568e-05 0
0 -0.000138619 0
0 -2.16714e-05 0
0 -0.000168226 0
0 -8.26002e-05 0
0 -8.9203e-05 0
0 -9.74165e-05 0
0 -7.37906e-05 0
0 -6.68156e-05 0
0 -5.47617e-05 0
0 -3.04981e-05 0
0 -0.000105531 0
0 -4.77758e-05 0
0 -0.000161821 0
0 -2.96713e-05 0
0 -7.9067e-05 0
0 -6.57564e-05 0
0 -0.000106704 0
0 -4.11017e-05 0
0 -8.006e-05 0
0 -6.02474e-05 0
0 -0.000115662 0
0 -2.18875e-05 0
0 -4.17098e-05 0
0 -0.000107827 0
0 -7.27379e-05 0
0 -4.13856e-05 0
0 -3.85027e-05 0
0 -3.029e-05 0
0 -0.000128774 0
0 -7.57947e-05 0
0 -0.000162261 0
0 -0.000116775 0
0 -7.15802e-05 0
0 -3.74431e-05 0
0 -0.000108892 0
0 -3.74072e-05 0
0 -0.000136493 0
0 -6.25303e-05 0
0 -7.85756e-05 0
0 -7.52544e-05 0
0 -0.000116589 0
0 -0.000160874 0
0 -2.73339e-05 0
0 -8.7662e-05 0
0 -2.53184e-05 0
0 -7.42972e-05 0
0 -4.15199e-05 0
0 -0.000128792 0
0 -3.72945e-05 0
0 -2.72189e-05 0
0 -7.03157e-05 0
0 -0.000119003 0
0 -5.02041e-05 0
0 -8.04153e-05 0
0 -4.4939e-05 0
0 -2.74192e-05 0
0 -3.19929e-05 0
0 -4.04607e-05 0
0 -2.07889e-05 0
0 -3.28809e-05 0
0 -3.54797e-05 0
0 -0.000153858 0
0 -7.19739e-05 0
0 -8.09026e-05 0
0 -4.90862e-05 0
0 -2.77255e-05 0
0 -7.06591e-05 0
0 -3.20606e-05 0
0 -4.10794e-05 0
0 -1.98932e-05 0
0 -2.37551e-05 0
0 -3.0591e-05 0
0 -5.86107e-05 0
0 -5.75946e-05 0
0 -4.01595e-05 0
0 -5.35099e-05 0
0 -2.24477e-05 0
0 -4.41213e-05 0
0 -4.29866e-05 0
0 -4.42325e-05 0
0 -4.30889e-05 0
0 -4.19155e-05 0
0 -5.21923e-05 0
0 -1.5029e-05 0
0 -2.34331e-05 0
0 -1.9903e-05 0
0 -4.30461e-05 0
0 -3.11931e-05 0
0 -3.08326e-05 0
0 -4.52797e-05 0
0 -5.7648e-05 0
0 -8.02544e-05 0
0 -2.43623e-05 0
0 -0.000150893 0
0 -3.43039e-05 0
0 -7.21258e-05 0
0 -1.97489e-05 0
0 -2.00202e-05 0
0 -7.83017e-05 0
0 -4.32908e-05 0
0 -7.00326e-05 0
0 -1.17841e-05 0
0 -4.93779e-05 0
0 -1.58193e-05 0
0 -4.04762e-05 0
0 -8.57147e-05 0
0 -4.2953e-05 0
0 -7.82027e-05 0
0 -2.09499e-05 0
0 -3.31713e-05 0
0 -9.30599e-05 0
0 -7.26197e-05 0
0 -1.76801e-05 0
0 -2.06228e-05 0
0 -7.8371e-05 0
0 -1.84411e-05 0
0 -7.30662e-05 0
0 -4.11806e-05 0
0 -2.3265e-05 0
0 -4.23503e-05 0
0 -5.94919e-05 0
0 -4.22718e-05 0
0 -2.12723e-05 0
0 -1.86252e-05 0
0 -1.77849e-05 0
0 -3.82356e-05 0
0 -2.39658e-05 0
0 -1.62481e-05 0
0 -7.86148e-05 0
0 -1.61387e-05 0
0 -2.34763e-05 0
0 -2.95637e-05 0
0 -2.93742e-05 0
0 -1.33947e-05 0
0 -1.83735e-05 0
0 -2.05639e-05 0
0 -1.91062e-05 0
0 -1.84053e-05 0
0 -6.25793e-05 0
0 -4.49914e-05 0
0 -1.98914e-05 0
0 -1.58922e-05 0
0 -2.367e-05 0
0 -3.81266e-05 0
0 -4.36518e-05 0
0 -2.25472e-05 0
0 -0.000115119 0
0 -3.05886e-05 0
0 -1.32828e-05 0
0 -3.38507e-05 0
0 -1.78391e-05 0
0 -2.88237e-05 0
0 -1.34771e-05 0
0 -2.36876e-05 0
0 -2.06453e-05 0
0 -2.58912e-05 0
0 -2.10097e-05 0
0 -1.7602e-05 0
0 -3.13896e-05 0
0 -1.34386e-05 0
0 -2.38863e-05 0
0 -2.04203e-05 0
0 -1.33426e-05 0
0 -2.13076e-05 0
0 -1.86316e-05 0
0 -3.10974e-05 0
0 -2.56228e-05 0
0 -2.33161e-05 0
0 -1.57181e-05 0
0 -1.87061e-05 0
0 -5.38771e-05 0
0 -1.84308e-05 0
0 -3.08341e-05 0
0 -2.91652e-05 0
0 -1.16203e-05 0
0 -1.85667e-05 0
0 -2.00287e-05 0
0 -2.68375e-05 0
0 -2.37799e-05 0
0 -3.16945e-05 0
0 -3.13676e-05 0
0 -3.15313e-05 0
0 -1.90796e-05 0
0 -1.58134e-05 0
0 -1.83326e-05 0
0 -3.16308e-05 0
0 -2.07128e-05 0
0 -2.91276e-05 0
0 -6.03597e-05 0
0 -2.26581e-05 0
0 -2.35174e-05 0
0 -2.33506e-05 0
0 -2.59482e-05 0
0 -1.63393e-05 0
0 -1.78912e-05 0
0 -2.02658e-05 0
0 -5.62379e-05 0
0 -2.04507e-05 0
0 -2.14176e-05 0
0 -2.38895e-05 0
0 -3.05955e-05 0
0 -3.11287e-05 0
0 -2.01544e-05 0
0 -1.92198e-05 0
0 -2.99909e-05 0
0 -6.32085e-05 0
0 -2.04829e-05 0
0 -2.67435e-05 0
0 -2.11611e-05 0
0 -1.83262e-05 0
0 -1.96474e-05 0
0 -2.0699e-05 0
0 -2.83503e-05 0
0 -2.27807e-05 0
0 -2.35234e-05 0
0 -1.93874e-05 0
0 -6.29086e-05 0
0 -2.12117e-05 0
0 -3.22943e-05 0
0 -2.06229e-05 0
0 -2.61501e-05 0
0 -1.90721e-05 0
0 -2.86319e-05 0
0 -2.53212e-05 0
0 -2.07681e-05 0
0 -2.05553e-05 0
0 -1.88077e-05 0
0 -6.92631e-05 0
0 -2.20924e-05 0
0 -2.02457e-05 0
0 -6.16224e-05 0
0 -2.08117e-05 0
0 -2.85397e-05 0
0 -2.08875e-05 0
0 -6.32617e-05 0
0 -1.39008e-05 0
0 -2.0289e-05 0
0 -6.45558e-05 0
0 -2.47785e-05 0
0 -2.35177e-05 0
0 -7.28089e-06 0
0 -2.18143e-05 0
0 -6.93323e-06 0
0 -6.87344e-06 0
0 -8.76768e-06 0
0 -2.48719e-05 0
0 -2.22231e-05 0
0 -1.31068e-05 0
0 -7.69816e-06 0
0 -2.27889e-05 0
0 -5.95166e-06 0
0 -6.55579e-06 0
0 -6.71305e-06 0
0 -2.46468e-05 0
0 -2.27228e-05 0
0 -7.6878e-06 0
0 -6.67903e-06 0
0 -6.10861e-05 0
0 -6.6189e-06 0
0 -6.52665e-06 0
0 -6.87836e-06 0
0 -1.78856e-05 0
0 -1.87072e-05 0
0 -6.73674e-06 0
0 -6.91401e-06 0
0 -1.82903e-05 0
0 -2.2423e-05 0
0 -6.67521e-06 0
0 -7.02401e-06 0
0 -1.78908e-05 0
0 -5.89658e-06 0
0 -1.98938e-05 0
0 -7.3162e-06 0
0 -5.63509e-06 0
0 -1.76631e-05 0
0 -1.42638e-05 0
0 -2.22707e-05 0
0 -1.77204e-05 0
0 -2.11264e-05 0
0 -1.75686e-05 0
0 -1.76047e-05 0
0 -6.69346e-06 0
0 -2.20467e-05 0
0 -1.42479e-05 0
0 -1.76144e-05 0
0 -6.84615e-06 0
0 -6.12404e-06 0
0 -6.50125e-06 0
0 -1.41879e-05 0
0 -1.37476e-05 0
0 -2.11168e-05 0
0 -1.79377e-05 0
0 -1.37282e-05 0
0 -1.41198e-05 0
0 -2.15061e-05 0
0 -6.84475e-06 0
0 -1.74349e-05 0
0 -1.75758e-05 0
0 -6.41828e-06 0
0 -7.20025e-06 0
0 -2.30432e-05 0
0 -6.96894e-06 0
0 -6.44499e-06 0
0 -6.14414e-06 0
0 -2.14766e-05 0
0 -6.00855e-06 0
0 -5.92427e-06 0
0 -5.81567e-06 0
0 -5.02303e-06 0
0 -5.01945e-06 0
0 -4.85271e-06 0
0 -4.87573e-06 0
0 -4.8684e-06 0
0 -5.22951e-06 0
0 -4.84801e-06 0
0 -4.88396e-06 0
0 -4.77612e-06 0
0 -4.81304e-06 0
0 -4.85251e-06 0
0 -4.8555e-06 0
0 -4.82575e-06 0
0 -4.80313e-06 0
0 -4.86923e-06 0
0 -4.85781e-06 0
0 -4.73027e-06 0
0 -1.08748e-05 0
0 -5.22863e-06 0
0 -5.34413e-06 0
0 -5.26459e-06 0
0 -5.05624e-06 0
0 -4.92238e-06 0
0 -5.43253e-06 0
0 -5.43253e-06 0
0 -5.43253e-06 0
0 -5.43253e-06 0
0 -5.43253e-06 0
0 -5.43253e-06 0
0 -5.40321e-06 0
0 -5.40321e-06 0
0 -7.3113e-06 0
0 -6.98147e-06 0
0 -4.8949e-06 0

