# vtk DataFile Version 4.2
vtk output
ASCII
DATASET UNSTRUCTURED_GRID

POINTS 343 double
0.00112248 0.00419492 8.54696e-08
0.00217108 0.00498252 0.00217533
0 0.00419538 0.00112517
0.00193008 0.00195446 0.00194214
0.00516974 0.00240693 0.00503199
0.00517251 0.00383007 0.00639725
0.00762282 0.0047755 0.0049983
0.00622463 0.00485045 0.0036914
0.00683673 0.00328869 0.00691341
0.0049912 0.00499255 0.00499958
0.00418101 0.00111821 0.00999884
0.00528154 0.00208034 0.00790371
0.00419084 -7.33707e-06 0.00831692
0.00201255 0.00200249 0.00803322
0.00428675 0.00253293 0.00999887
0.00695689 0.00644681 0.00694632
0.00641386 0.00618244 0.00518261
0.00226069 0.00218463 0.00514607
0 0.00143586 0.00417514
0.00159462 0.00346615 0.00403702
0.00683723 0.00319403 0.00316103
0.00774582 0.00221316 0.00506326
0 0.00270918 0.00154168
0.00415814 0.00142859 3.40102e-08
0.00500784 0.00218789 0.00219775
0.0039624 0.00352672 0.00160298
0.00134545 -5.98685e-07 0.00406001
0.00418345 -7.70995e-06 0.00168811
0.00262605 0.00695164 9.34743e-08
0.00193824 0.00805273 0.00194489
0.0040875 0.00624805 0.00164496
0.00800335 0.00798595 0.00799637
0.00796547 0.00481561 0.00802141
0.00838857 0.00607957 0.00594703
0.00999885 0.00882543 0.00419069
0.00757695 0.00763563 0.00496298
0.00856671 0.00997996 0.00416558
0.00797615 0.00797107 0.00201521
0.0035363 0.00303655 0.00695939
0.00443787 0.00366192 0.00832372
0.00389268 0.00160058 0.00596889
0.00500584 0.00766827 0.00767631
0.00198978 0.00800789 0.00798961
0.0028276 0.00999729 0.00712708
0.00391674 0.0083995 0.00595767
0 0.00695361 0.00262895
0.00164652 0.00623926 0.00408788
0 0.0040177 0.00850214
0.00231521 0.00498571 0.00766146
0.00143345 0.00417447 0.00999993
0.00717564 0.00711803 0.00999702
0.00611871 0.0059707 0.00841675
0.00205194 0.00794141 0.00474182
0.00304389 0.00694288 0.00646763
0.00158701 0.00607835 0.005926
0.00998974 0.00578361 0.00831324
0 0.00718191 0.00711644
0.0015845 0.00577344 3.76637e-08
0 0.00577432 0.00158701
0.00999426 0.00715732 0.0071127
0.0028679 0.00334931 0.00999955
0.00997053 0.001409 0.00417281
0.00803626 0.00194291 0.0019782
0.00838948 0.00350206 0.00399732
0.003726 0.00164806 0.00412823
0.00150941 0.00999968 0.005815
0.00280996 -3.54031e-06 0.00712764
0.00611043 0.00417143 0.00837524
0.0099928 0.00724936 0.004193
0.00852903 -2.20679e-05 0.00416645
0.00334147 0.00286968 4.57628e-08
0.00270074 0.00153887 0.00999959
0.00281858 -3.92513e-06 0.00283198
0.00479831 0.00519405 0.00755386
0.00315824 0.00314628 0.0031673
0 0.00849157 0.00581511
0.00486489 0.00366952 0.00378596
0.00153699 0.00270866 3.01992e-08
0.00580039 0.00831593 0.00999774
0.00598526 0.00998929 0.00850426
0.0042144 0.00999407 0.00831698
0.00401834 0.00849832 0.00999864
0.00999846 0.00846675 0.00581171
0.00314744 0.00683352 0.00315081
0 0.00748929 0.00137438
0.00137333 0.00748898 1.7465e-08
0 0.00287343 0.00335182
0 0.00580816 0.00831736
0 0.00429792 0.00253898
0.00253335 0.00429591 1.10869e-07
0.00143407 0.00581917 0.00999994
0.00517567 0.00646856 0.00639969
0.0036037 0.00650936 0.0082336
0.00693352 0.00261305 0.00999737
0.0080005 0.00193979 0.00803307
0.00694226 -1.64373e-05 0.00308126
0.00600098 0.0016525 0.00361229
0.00997545 0.00284741 0.00334971
0 0.00140616 0.00256446
0.00637356 0.00821668 0.00641969
0.0057964 0.00142336 2.52514e-08
0.00602189 0.00354101 0.00160279
0.0031572 0.0099965 0.00582502
0.00856235 0.00998014 0.00583066
0.00255388 0.00140304 1.16312e-07
0.00595011 -1.30814e-05 0.00149414
0.00628013 0.0082767 0.00361643
0.00852477 -2.18891e-05 0.00583123
0.00618732 0.00166062 0.00636417
0.0014025 0.00256406 0.00999999
0.00711041 0.00716774 -7.8213e-07
0.00516484 0.00768226 0.00216848
0.00593596 0.00608379 0.00160136
0 0.00686719 0.00578184
0.00996944 0.00137909 0.00256267
0.00177238 0.00360989 0.00640783
0.00999659 0.00846176 0.00262131
0.00840332 0.00617052 0.00413099
0.00598233 0.00998862 0.00149312
0.00694294 -1.61392e-05 0.0069249
0.00997156 0.00140882 0.00581671
0.00837992 0.003554 0.00605867
0.00150202 -7.57764e-07 0.00581518
0 0.0013659 0.00748679
0.00136388 -6.30467e-07 0.0075289
0.00999221 0.00684252 0.00577853
0.00581445 0.0084812 -4.99603e-07
0 0.0075208 0.00859127
0.00136533 0.00748644 0.00999986
0.00423089 0.00820031 0.003628
0.0085962 0.00998002 0.00750904
0.0100001 0.00860554 0.00752237
0.00575633 0.00157571 0.00999798
0.00724667 0.00417356 0.00999715
0 0.0057735 0.00666667
0.0013704 0.00999961 0.00752891
0 0.00863025 0.00752641
0.00855471 -2.24854e-05 0.0025063
0.00999065 0.00692862 0.00262667
0.00844994 0.00632301 0.00216146
0.00850129 0.00580507 0.00999636
0.0074671 0.00135704 0.00999696
0.0085585 -2.20918e-05 0.00750922
0.00997229 0.00133929 0.00748311
0 0.00143551 0.00581971
0.00595339 -1.26068e-05 0.0085042
0.00419353 -7.74283e-06 0.00339982
0.00791975 0.0046903 0.00203337
0.00998037 0.0042725 0.00253695
0.00423174 0.00999385 0.00666587
0.00283647 0.00999735 0.00283184
0.00130706 -6.55425e-07 0.00241832
0 0.00727418 0.00419576
0.00998852 0.00574887 0.0066631
0.00697701 0.00998545 0.00308037
0.0075093 0.0086215 0.0099968
0 0.00574334 0.00336387
0 0.0043297 0.00416652
0.00686303 0.00577154 0.00999736
0.00997818 0.00299654 0.00691178
0.00420671 -7.52709e-06 0.00666622
0.00248066 0.00999769 0.00861126
0.00745914 0.00134795 -3.95042e-07
0.00577124 0.00665765 0.00999778
0.00999652 0.00749631 0.00858694
0.00860651 0.0075345 0.00999622
0.00689451 0.00300751 -2.34739e-07
0.00335854 0.00574044 1.34728e-07
0.0075249 0.00861413 -1.06132e-06
0.00751838 0.00998325 0.00138605
0.0057762 0.0068576 -4.19789e-07
0.00696778 0.00635752 0.00303236
0.00748251 -1.8739e-05 0.00138715
0.00288088 0.00499715 0.00999945
0.00432617 0.00582867 0.00999863
0.00432215 0.00416155 0.0099987
0.00752221 0.00998384 0.00861316
0.00246541 -2.9783e-06 0.00861146
0.00998632 0.00571841 0.00336153
0 0.00302218 0.00691532
0.00998291 0.00399269 0.00849803
0.00848204 0.00399757 -8.4768e-07
0.00997379 0.00268281 0.00154009
0 0.00244495 0.00857025
0.00244634 0.00856822 0.00999938
0.00748648 -1.82225e-05 0.00861307
0.00846744 0.00260385 0.00999638
0.00883682 0.00417328 0.00999616
0.00567545 0.0099899 0.00583216
0.00518491 0.00757589 0.00503163
0.00564706 0.00998984 0.00421432
0.0069776 0.00998578 0.00692454
0.00302114 0.00691333 0.0099992
0.00415677 0.00432467 1.4271e-07
0.00282169 -4.04758e-06 0.00440469
0.00313805 -4.51544e-06 0.00582544
0.0099792 0.00416969 0.00112353
0.00363764 0.00833323 0.00158812
0.00998147 0.00430443 0.00416402
0.00665607 0.00576094 -3.88635e-07
0.00859255 0.00997961 0.0025052
0 0.00848692 0.00262374
0.0013521 0.00999966 0.00405986
0 0.00885053 0.00419359
0.00419428 0.00884438 -1.38039e-07
0.00420818 0.00999367 0.00168742
0.00498966 0.00478449 0.00237858
0.00720356 0.00450669 -4.24164e-07
0.00561666 -1.19994e-05 0.00421512
0.00564512 -1.19289e-05 0.00583261
0.00131356 0.00999968 0.00241806
0.00854413 0.00242379 -7.53669e-07
0.00998407 0.00449681 0.00721586
0.00711998 0.00998516 0.00499853
0.00573102 0.00335429 0.00999802
0.00244571 -3.18844e-06 0.00135669
0.00997696 0.00241899 0.00856621
0.00239181 0.00478979 0.00499987
0.0058193 0.00431997 -5.51834e-08
0.00830438 0.0057893 -1.03838e-06
0.00548481 0.00999063 0.00721912
0.00998246 0.00430501 0.00583017
0.00540678 0.00999043 0.00277488
0.00708489 -1.6728e-05 0.00499924
0.00283905 0.00999735 0.00440427
0 0.00452174 0.00721958
0.00452073 0.00721459 0.00999847
0.00545504 -1.11492e-05 0.00721912
0.00359795 0.0050705 0.00359641
0.0042562 0.0099938 0.00500766
0.0042305 -7.70763e-06 0.00500831
0.00366638 0.00521348 0.0061743
0 0.005744 0.00499998
0 0.00433013 0.00583333
0.00499198 0.00573718 -3.20439e-09
0.00498013 0.00633241 0.00355339
0.00537692 -1.13502e-05 0.00277578
0.00998735 0.00571925 0.00499703
0.00368788 0.00640441 0.00484369
0.00573672 0.00499133 0.00999794
0.00998546 0.00574917 0.00158513
0 0.00666667 0
0.00858444 0.00750106 -1.39587e-06
0.00331624 -5.97734e-06 6.6871e-07
0 0.01 0.00666667
0.00500685 0.00999173 0.00999839
0 0.00288419 0.00499914
0.00999203 0.00746417 0.00137239
0.00998816 0.00664146 -1.88404e-06
0 0.005 0.01
0.00498289 0.00287588 2.57061e-08
0 0.005 0
0.00996455 -2.777e-05 0.00333144
0.0100049 0.00997456 0.00666282
0.0041926 0.00726904 -6.13068e-08
0.00997642 0.00285838 0.0049964
0.00497576 -1.0693e-05 5.21392e-07
0 0 0.00666667
0.00379056 0.00361272 0.0052261
0.00497973 -1.01828e-05 0.00999802
0.00996658 -2.75016e-05 0.00666334
0 0 0.005
0.00878296 0.00997869 0.0012183
0.00999696 0.00875443 0.00121794
0.00996553 -2.75916e-05 0.00499742
0.00998176 0.00497438 -1.64292e-06
0.00121553 0.00121927 -1.20724e-08
0 0.00122008 0.00122008
0 0.00333333 0.01
0 0.00666667 0.01
0.00877772 0.00875899 -1.64056e-06
0.0100029 0.00997419 0.0033305
0.00421904 0.00999375 0.00339922
0.00999407 0.00664229 0.00999546
0 0.00333333 0
0 0.00122008 0.00877992
0.00121511 -8.01532e-07 0.00877967
0.0012163 0.00121953 0.0100001
0.00878731 0.00997927 0.00877635
0.00122013 0.00877946 0.00999986
0 0.00877992 0.00877992
0.0100016 0.00875515 0.00877555
0.00667036 0.00998605 -1.11963e-06
0.0099679 0.00119271 0.00121871
0.00122106 0.00999946 0.00878006
0.00878356 0.00875979 0.00999614
0.00998763 0.00497531 0.0099955
0 0 0.00333333
0.00663632 -1.58917e-05 2.45159e-07
0.00874495 -2.34288e-05 0.0012195
0.00120599 -8.50261e-07 0.00121206
0 0.00877992 0.00122008
0.00121982 0.0087794 9.13633e-08
0.00121218 0.00999952 0.0012114
0.00997245 0.0011933 0.00877569
0.00875471 0.00119784 0.00999611
0.00664146 -1.54026e-05 0.00999696
0.00874884 0.00119721 -7.05648e-07
0.00874946 -2.29038e-05 0.00877618
0.00997541 0.00330716 -1.44197e-06
0.0033384 0.00999562 0.00999938
0.00246144 0.00999789 0.00135627
0.00667509 0.00998677 0.00999753
0.00998123 0.00330806 0.0099955
0 0.01 0.005
0.00262358 0.00848463 8.88932e-08
0.0100039 0.00997439 0.00499674
0 0.01 0.00333333
0 0.00166667 0
0.00996357 -2.80182e-05 0.00166536
0 0.00166667 0.01
0 0.00833333 0
0.00999467 0.00830783 -2.10583e-06
0.0099676 -2.75558e-05 0.00832913
0.0100019 0.00997398 0.00166429
0.0100059 0.00997459 0.00832907
0.00166908 0.00999853 0.00999984
0 0.01 0.00833333
0.00833622 0.00998015 -1.64501e-06
0.00829874 -2.20558e-05 -3.53685e-07
0.00830451 -2.15143e-05 0.00999611
0.00834166 0.00998076 0.00999647
0 0 0.00833333
0.0100006 0.0083087 0.00999541
0.00165787 -2.0887e-06 2.19806e-07
0 0 0.00166667
0.00333679 0.00999576 -1.05818e-07
0.00997487 0.00164005 0.00999544
0.009969 0.00163938 -1.29876e-06
0.00165933 -1.70416e-06 0.00999994
0.00166832 0.00999882 2.88605e-08
0 0.01 0.00166667
0.010007 0.00997464 0.00999548
0 0 0.01
0.0100011 0.00997379 -2.38677e-06
0.00996857 -2.76695e-05 0.00999517
0 0.01 0.01
0.00996265 -2.82132e-05 -1.04596e-06
0 0.01 0
0 0 0
0.00500378 0.00999123 -5.29454e-07
0.00331908 -5.39627e-06 0.00999889
0 0.00833333 0.01

CELLS 343 686
1 0
1 1
1 2
1 3
1 4
1 5
1 6
1 7
1 8
1 9
1 10
1 11
1 12
1 13
1 14
1 15
1 16
1 17
1 18
1 19
1 20
1 21
1 22
1 23
1 24
1 25
1 26
1 27
1 28
1 29
1 30
1 31
1 32
1 33
1 34
1 35
1 36
1 37
1 38
1 39
1 40
1 41
1 42
1 43
1 44
1 45
1 46
1 47
1 48
1 49
1 50
1 51
1 52
1 53
1 54
1 55
1 56
1 57
1 58
1 59
1 60
1 61
1 62
1 63
1 64
1 65
1 66
1 67
1 68
1 69
1 70
1 71
1 72
1 73
1 74
1 75
1 76
1 77
1 78
1 79
1 80
1 81
1 82
1 83
1 84
1 85
1 86
1 87
1 88
1 89
1 90
1 91
1 92
1 93
1 94
1 95
1 96
1 97
1 98
1 99
1 100
1 101
1 102
1 103
1 104
1 105
1 106
1 107
1 108
1 109
1 110
1 111
1 112
1 113
1 114
1 115
1 116
1 117
1 118
1 119
1 120
1 121
1 122
1 123
1 124
1 125
1 126
1 127
1 128
1 129
1 130
1 131
1 132
1 133
1 134
1 135
1 136
1 137
1 138
1 139
1 140
1 141
1 142
1 143
1 144
1 145
1 146
1 147
1 148
1 149
1 150
1 151
1 152
1 153
1 154
1 155
1 156
1 157
1 158
1 159
1 160
1 161
1 162
1 163
1 164
1 165
1 166
1 167
1 168
1 169
1 170
1 171
1 172
1 173
1 174
1 175
1 176
1 177
1 178
1 179
1 180
1 181
1 182
1 183
1 184
1 185
1 186
1 187
1 188
1 189
1 190
1 191
1 192
1 193
1 194
1 195
1 196
1 197
1 198
1 199
1 200
1 201
1 202
1 203
1 204
1 205
1 206
1 207
1 208
1 209
1 210
1 211
1 212
1 213
1 214
1 215
1 216
1 217
1 218
1 219
1 220
1 221
1 222
1 223
1 224
1 225
1 226
1 227
1 228
1 229
1 230
1 231
1 232
1 233
1 234
1 235
1 236
1 237
1 238
1 239
1 240
1 241
1 242
1 243
1 244
1 245
1 246
1 247
1 248
1 249
1 250
1 251
1 252
1 253
1 254
1 255
1 256
1 257
1 258
1 259
1 260
1 261
1 262
1 263
1 264
1 265
1 266
1 267
1 268
1 269
1 270
1 271
1 272
1 273
1 274
1 275
1 276
1 277
1 278
1 279
1 280
1 281
1 282
1 283
1 284
1 285
1 286
1 287
1 288
1 289
1 290
1 291
1 292
1 293
1 294
1 295
1 296
1 297
1 298
1 299
1 300
1 301
1 302
1 303
1 304
1 305
1 306
1 307
1 308
1 309
1 310
1 311
1 312
1 313
1 314
1 315
1 316
1 317
1 318
1 319
1 320
1 321
1 322
1 323
1 324
1 325
1 326
1 327
1 328
1 329
1 330
1 331
1 332
1 333
1 334
1 335
1 336
1 337
1 338
1 339
1 340
1 341
1 342

CELL_TYPES 343
1
1
1
1
1
1
1
1
1
1
1
1
1
1
1
1
1
1
1
1
1
1
1
1
1
1
1
1
1
1
1
1
1
1
1
1
1
1
1
1
1
1
1
1
1
1
1
1
1
1
1
1
1
1
1
1
1
1
1
1
1
1
1
1
1
1
1
1
1
1
1
1
1
1
1
1
1
1
1
1
1
1
1
1
1
1
1
1
1
1
1
1
1
1
1
1
1
1
1
1
1
1
1
1
1
1
1
1
1
1
1
1
1
1
1
1
1
1
1
1
1
1
1
1
1
1
1
1
1
1
1
1
1
1
1
1
1
1
1
1
1
1
1
1
1
1
1
1
1
1
1
1
1
1
1
1
1
1
1
1
1
1
1
1
1
1
1
1
1
1
1
1
1
1
1
1
1
1
1
1
1
1
1
1
1
1
1
1
1
1
1
1
1
1
1
1
1
1
1
1
1
1
1
1
1
1
1
1
1
1
1
1
1
1
1
1
1
1
1
1
1
1
1
1
1
1
1
1
1
1
1
1
1
1
1
1
1
1
1
1
1
1
1
1
1
1
1
1
1
1
1
1
1
1
1
1
1
1
1
1
1
1
1
1
1
1
1
1
1
1
1
1
1
1
1
1
1
1
1
1
1
1
1
1
1
1
1
1
1
1
1
1
1
1
1
1
1
1
1
1
1
1
1
1
1
1
1
1
1
1
1
1
1
1
1
1
1
1
1
1
1
1
1
1
1
1
1
1
1
1
1
1
1
1
1
1
1
1
1
1
1
1
1

POINT_DATA 343
FIELD FieldData 8

NodeID_(#) 1 343 int
0
1
2
3
4
5
6
7
8
9
10
11
12
13
14
15
16
17
18
19
20
21
22
23
24
25
26
27
28
29
30
31
32
33
34
35
36
37
38
39
40
41
42
43
44
45
46
47
48
49
50
51
52
53
54
55
56
57
58
59
60
61
62
63
64
65
66
67
68
69
70
71
72
73
74
75
76
77
78
79
80
81
82
83
84
85
86
87
88
89
90
91
92
93
94
95
96
97
98
99
100
101
102
103
104
105
106
107
108
109
110
111
112
113
114
115
116
117
118
119
120
121
122
123
124
125
126
127
128
129
130
131
132
133
134
135
136
137
138
139
140
141
142
143
144
145
146
147
148
149
150
151
152
153
154
155
156
157
158
159
160
161
162
163
164
165
166
167
168
169
170
171
172
173
174
175
176
177
178
179
180
181
182
183
184
185
186
187
188
189
190
191
192
193
194
195
196
197
198
199
200
201
202
203
204
205
206
207
208
209
210
211
212
213
214
215
216
217
218
219
220
221
222
223
224
225
226
227
228
229
230
231
232
233
234
235
236
237
238
239
240
241
242
243
244
245
246
247
248
249
250
251
252
253
254
255
256
257
258
259
260
261
262
263
264
265
266
267
268
269
270
271
272
273
274
275
276
277
278
279
280
281
282
283
284
285
286
287
288
289
290
291
292
293
294
295
296
297
298
299
300
301
302
303
304
305
306
307
308
309
310
311
312
313
314
315
316
317
318
319
320
321
322
323
324
325
326
327
328
329
330
331
332
333
334
335
336
337
338
339
340
341
342

Component_(#) 1 343 int
0
0
0
0
0
0
0
0
0
0
0
0
0
0
0
0
0
0
0
0
0
0
0
0
0
0
0
0
0
0
0
0
0
0
0
0
0
0
0
0
0
0
0
0
0
0
0
0
0
0
0
0
0
0
0
0
0
0
0
0
0
0
0
0
0
0
0
0
0
0
0
0
0
0
0
0
0
0
0
0
0
0
0
0
0
0
0
0
0
0
0
0
0
0
0
0
0
0
0
0
0
0
0
0
0
0
0
0
0
0
0
0
0
0
0
0
0
0
0
0
0
0
0
0
0
0
0
0
0
0
0
0
0
0
0
0
0
0
0
0
0
0
0
0
0
0
0
0
0
0
0
0
0
0
0
0
0
0
0
0
0
0
0
0
0
0
0
0
0
0
0
0
0
0
0
0
0
0
0
0
0
0
0
0
0
0
0
0
0
0
0
0
0
0
0
0
0
0
0
0
0
0
0
0
0
0
0
0
0
0
0
0
0
0
0
0
0
0
0
0
0
0
0
0
0
0
0
0
0
0
0
0
0
0
0
0
0
0
0
0
0
0
0
0
0
0
0
0
0
0
0
0
0
0
0
0
0
0
0
0
0
0
0
0
0
0
0
0
0
0
0
0
0
0
0
0
0
0
0
0
0
0
0
0
0
0
0
0
0
0
0
0
0
0
0
0
0
0
0
0
0
0
0
0
0
0
0
0
0
0
0
0
0
0
0
0
0
0
0
0
0
0
0
0
0
0
0
0
0
0
0
0
0
0
0
0
0
0
0
0
0
0
0

NodalMass_(kg) 1 343 double
3.15563e-06
1.41304e-05
2.20912e-06
1.71484e-05
8.42e-06
9.09306e-06
9.93033e-06
7.52198e-06
6.81096e-06
5.58223e-06
3.10888e-06
1.07575e-05
4.87011e-06
1.64955e-05
3.0246e-06
8.05984e-06
6.703e-06
1.0877e-05
4.18978e-06
8.16106e-06
6.14143e-06
1.17902e-05
2.23114e-06
4.25176e-06
1.09915e-05
7.41467e-06
4.21871e-06
3.92484e-06
3.08766e-06
1.31268e-05
7.72627e-06
1.65404e-05
1.19037e-05
7.29666e-06
3.81683e-06
1.11001e-05
3.81317e-06
1.39137e-05
6.37414e-06
8.00975e-06
7.6712e-06
1.18847e-05
1.6399e-05
2.78633e-06
8.93599e-06
2.58087e-06
7.57362e-06
4.23241e-06
1.31286e-05
3.80168e-06
2.7746e-06
7.16776e-06
1.21307e-05
5.11765e-06
8.19728e-06
4.58094e-06
2.79503e-06
3.26126e-06
4.12443e-06
2.11915e-06
3.35177e-06
3.61669e-06
1.56838e-05
7.33679e-06
8.24695e-06
5.00369e-06
2.82625e-06
7.20276e-06
3.26815e-06
4.18751e-06
2.02785e-06
2.42152e-06
3.11835e-06
5.97459e-06
5.87101e-06
4.09374e-06
5.45463e-06
2.28825e-06
4.49759e-06
4.38192e-06
4.50892e-06
4.39234e-06
4.27273e-06
5.32031e-06
1.53201e-06
2.38869e-06
2.02885e-06
4.38798e-06
3.17972e-06
3.14298e-06
4.61567e-06
5.87645e-06
8.18088e-06
2.48341e-06
1.53815e-05
3.49683e-06
7.35227e-06
2.01314e-06
2.0408e-06
7.98183e-06
4.41293e-06
7.1389e-06
1.20123e-06
5.03343e-06
1.61257e-06
4.12601e-06
8.73748e-06
4.37849e-06
7.97173e-06
2.13557e-06
3.38137e-06
9.48623e-06
7.40262e-06
1.80226e-06
2.10222e-06
7.98889e-06
1.87983e-06
7.44814e-06
4.19782e-06
2.37156e-06
4.31705e-06
6.06441e-06
4.30905e-06
2.16843e-06
1.8986e-06
1.81294e-06
3.89762e-06
2.44299e-06
1.65628e-06
8.01374e-06
1.64513e-06
2.3931e-06
3.01363e-06
2.99431e-06
1.36541e-06
1.87293e-06
2.09622e-06
1.94762e-06
1.87618e-06
6.37913e-06
4.58628e-06
2.02767e-06
1.61999e-06
2.41284e-06
3.8865e-06
4.44973e-06
2.29839e-06
1.17349e-05
3.11811e-06
1.354e-06
3.45063e-06
1.81846e-06
2.9382e-06
1.37381e-06
2.41464e-06
2.10451e-06
2.63927e-06
2.14166e-06
1.7943e-06
3.19976e-06
1.36989e-06
2.43489e-06
2.08158e-06
1.3601e-06
2.17203e-06
1.89924e-06
3.16996e-06
2.6119e-06
2.37677e-06
1.60225e-06
1.90684e-06
5.49206e-06
1.87878e-06
3.14313e-06
2.97301e-06
1.18454e-06
1.89263e-06
2.04166e-06
2.73572e-06
2.42405e-06
3.23083e-06
3.19752e-06
3.2142e-06
1.94492e-06
1.61196e-06
1.86876e-06
3.22435e-06
2.1114e-06
2.96917e-06
6.15288e-06
2.3097e-06
2.39729e-06
2.38029e-06
2.64508e-06
1.66557e-06
1.82377e-06
2.06583e-06
5.73271e-06
2.08467e-06
2.18324e-06
2.43522e-06
3.1188e-06
3.17316e-06
2.05447e-06
1.9592e-06
3.05718e-06
6.44327e-06
2.08796e-06
2.72615e-06
2.15709e-06
1.86812e-06
2.0028e-06
2.10999e-06
2.88994e-06
2.3222e-06
2.3979e-06
1.97629e-06
6.4127e-06
2.16225e-06
3.29198e-06
2.10223e-06
2.66566e-06
1.94415e-06
2.91865e-06
2.58116e-06
2.11703e-06
2.09534e-06
1.91719e-06
7.06046e-06
2.25203e-06
2.06378e-06
6.28159e-06
2.12147e-06
2.90924e-06
2.12921e-06
6.4487e-06
1.41701e-06
2.0682e-06
6.58062e-06
2.52584e-06
2.39732e-06
7.42191e-07
2.22368e-06
7.06751e-07
7.00657e-07
8.93749e-07
2.53536e-06
2.26535e-06
1.33607e-06
7.84725e-07
2.32303e-06
6.06694e-07
6.68276e-07
6.84307e-07
2.51242e-06
2.31629e-06
7.8367e-07
6.80839e-07
6.22692e-06
6.7471e-07
6.65305e-07
7.01158e-07
1.8232e-06
1.90695e-06
6.86722e-07
7.04792e-07
1.86445e-06
2.28572e-06
6.8045e-07
7.16005e-07
1.82373e-06
6.01079e-07
2.02791e-06
7.4579e-07
5.74423e-07
1.80052e-06
1.454e-06
2.2702e-06
1.80636e-06
2.15356e-06
1.79089e-06
1.79456e-06
6.8231e-07
2.24737e-06
1.45239e-06
1.79556e-06
6.97875e-07
6.24265e-07
6.62717e-07
1.44627e-06
1.40138e-06
2.15258e-06
1.82851e-06
1.3994e-06
1.43932e-06
2.19226e-06
6.97732e-07
1.77726e-06
1.79162e-06
6.54258e-07
7.3397e-07
2.34895e-06
7.10392e-07
6.56982e-07
6.26314e-07
2.18926e-06
6.12493e-07
6.03901e-07
5.92831e-07
5.12031e-07
5.11667e-07
4.9467e-07
4.97016e-07
4.96269e-07
5.33079e-07
4.94191e-07
4.97855e-07
4.86862e-07
4.90626e-07
4.94649e-07
4.94954e-07
4.91922e-07
4.89615e-07
4.96354e-07
4.95189e-07
4.82188e-07
1.10854e-06
5.3299e-07
5.44763e-07
5.36655e-07
5.15417e-07
5.01772e-07
5.53774e-07
5.53774e-07
5.53774e-07
5.53774e-07
5.53774e-07
5.53774e-07
5.50785e-07
5.50785e-07
7.45291e-07
7.11668e-07
4.9897e-07

NodalForce_(N) 3 343 double
1.6123e-07 -1.67631e-08 7.65812e-09
1.16421e-06 -2.65741e-07 2.73805e-07
0.000296473 0.000364152 0.000423139
2.35274e-07 -3.45599e-07 2.59901e-07
-1.51497e-06 -1.6193e-06 1.34658e-06
-1.65219e-06 -1.46959e-06 1.5724e-06
-6.95918e-09 -3.58705e-06 3.83566e-06
9.38005e-07 -1.76086e-06 1.86571e-06
-2.13244e-06 -2.14213e-06 2.19379e-06
5.7332e-08 -7.74271e-07 8.26815e-07
-1.53731e-06 -5.0301e-07 4.76279e-07
-4.55534e-06 -2.32403e-06 2.21974e-06
-2.29425e-06 -8.59039e-07 6.69283e-07
-1.7851e-06 -3.04341e-07 3.53925e-07
-1.27515e-06 -4.08447e-07 4.934e-07
-3.0154e-07 -2.27883e-06 2.67897e-06
6.94919e-07 -1.60049e-06 1.77322e-06
-5.70066e-07 -2.76985e-07 2.70437e-07
-0.00124449 0.000649201 -0.00011473
3.58373e-08 -5.20701e-08 5.34698e-08
2.08754e-07 -1.96339e-06 1.89075e-06
-2.9625e-06 -5.02721e-06 4.74895e-06
-0.000496731 -0.00154834 -0.000787493
4.51675e-07 -6.83968e-07 5.56113e-07
1.47157e-07 -2.19432e-06 2.08718e-06
1.00974e-06 -7.1387e-07 9.26951e-07
-2.376e-07 -3.07526e-08 4.30307e-08
-3.66309e-07 -6.43327e-07 5.45579e-07
8.05958e-07 -8.63477e-08 1.49277e-07
1.64627e-06 -1.12136e-07 2.39059e-07
2.07584e-06 -5.52495e-07 9.98289e-07
1.51489e-07 -6.45319e-06 7.48055e-06
-3.6655e-06 -4.68209e-06 5.31442e-06
2.85861e-07 -3.11602e-06 3.44658e-06
2.00963e-06 -2.28355e-06 2.41632e-06
3.18739e-06 -3.87073e-06 4.18568e-06
2.37118e-06 -1.77761e-06 1.82851e-06
8.81383e-06 -5.39749e-06 6.0027e-06
-9.5694e-07 -4.7081e-07 4.86304e-07
-2.16109e-06 -9.1096e-07 1.26835e-06
-1.7076e-06 -9.5125e-07 6.30682e-07
1.54016e-08 -1.78457e-06 2.2213e-06
-7.91084e-08 -2.9715e-07 2.8798e-07
3.42544e-07 -1.39188e-07 1.09422e-07
1.24721e-06 -8.34401e-07 7.65827e-07
0.000890319 0.000694888 -0.000375659
3.16863e-07 -9.69663e-08 8.88291e-08
-0.00013805 0.000976122 6.29643e-05
-5.55931e-07 -2.48846e-07 3.57983e-07
-2.50265e-07 -3.37686e-08 2.85172e-08
-6.72189e-07 -8.67377e-07 1.07983e-06
-1.36416e-06 -1.55676e-06 2.04619e-06
7.65716e-07 -1.11866e-07 2.10585e-07
1.32873e-07 -1.78665e-07 2.40821e-07
2.58306e-08 -7.36736e-08 9.72132e-08
-1.03156e-06 -2.73728e-06 3.01684e-06
0.000725537 0.000585579 0.00065939
3.58774e-07 -3.72929e-08 3.54188e-08
-0.000111539 -2.4846e-05 -0.000321896
8.78741e-08 -1.25374e-06 1.38661e-06
-8.32387e-07 -1.6368e-07 2.51475e-07
-8.76558e-07 -2.42664e-06 2.30615e-06
5.76284e-07 -7.2381e-06 6.83497e-06
-1.02178e-07 -3.37604e-06 3.42695e-06
-1.10215e-06 -9.48063e-07 6.0709e-07
3.24668e-07 -1.91075e-08 3.8793e-08
-7.42252e-07 -2.29325e-07 1.26608e-07
-2.43519e-06 -1.65615e-06 2.04273e-06
1.1981e-06 -1.92818e-06 2.07168e-06
-1.63772e-06 -2.27203e-06 2.03301e-06
3.74373e-07 -1.39749e-07 1.64782e-07
-7.45241e-07 -1.52331e-07 1.666e-07
-4.46389e-07 -2.51227e-07 1.34297e-07
-9.3261e-07 -7.23327e-07 1.01268e-06
3.75111e-08 -3.11937e-07 2.97636e-07
0.00132939 0.000537929 0.000340347
3.23723e-08 -7.93843e-07 7.99945e-07
1.3625e-07 -1.53139e-08 1.84844e-08
-6.3705e-07 -9.83992e-07 1.22257e-06
5.08772e-07 -1.04863e-06 1.25385e-06
3.53561e-07 -5.4767e-07 6.51339e-07
-4.47825e-07 -5.06841e-07 6.00412e-07
1.3355e-06 -2.53658e-06 2.74348e-06
7.03795e-07 -1.96525e-07 2.8015e-07
2.51474e-05 -0.00105809 0.000352575
2.63656e-07 3.23586e-09 7.39576e-09
9.92525e-05 -0.000645915 0.000397751
-0.000634508 -0.000307768 7.54713e-05
-0.000264197 0.000232123 -0.000166106
6.03663e-07 -1.00332e-07 1.40293e-07
-2.7888e-07 -2.50495e-08 3.77669e-08
7.59953e-08 -8.58269e-07 1.02625e-06
-7.75274e-07 -4.21645e-07 8.16437e-07
-1.59661e-06 -8.55148e-07 9.17498e-07
-9.0934e-06 -7.04556e-06 6.85642e-06
-8.61663e-07 -1.35972e-06 1.14007e-06
-1.00735e-06 -2.06081e-06 1.75399e-06
-1.01895e-08 -1.28847e-06 1.28518e-06
-7.50814e-05 7.81342e-05 -2.18952e-05
1.21651e-06 -2.01881e-06 2.13649e-06
5.59906e-07 -1.23061e-06 1.11568e-06
1.24273e-06 -1.76397e-06 1.91654e-06
2.13376e-07 -8.78322e-08 6.96044e-08
2.21347e-06 -2.35369e-06 2.4409e-06
1.29108e-07 -1.04308e-07 8.11967e-08
-4.51523e-07 -1.24322e-06 1.12025e-06
3.60527e-06 -2.15464e-06 2.24815e-06
-2.47781e-06 -2.36721e-06 2.12706e-06
-3.07897e-06 -2.33569e-06 2.02228e-06
-1.84623e-07 -6.64928e-09 1.64223e-08
2.34418e-06 -1.03377e-06 1.25508e-06
4.00277e-06 -1.51123e-06 1.80034e-06
2.95501e-06 -1.45662e-06 1.93108e-06
-0.000662951 -0.000353875 -0.00072952
-1.58508e-07 -1.41481e-06 1.34089e-06
-2.86457e-07 -9.44113e-08 1.2819e-07
1.23697e-06 -1.12209e-06 1.20524e-06
1.80494e-06 -3.21108e-06 3.4589e-06
3.00996e-06 -1.04497e-06 1.11495e-06
-1.47035e-06 -9.37464e-07 7.69216e-07
-1.8115e-06 -2.89347e-06 2.76672e-06
-1.41414e-06 -2.77105e-06 2.87779e-06
-3.48736e-07 -5.6449e-08 3.77248e-08
0.000231249 0.000198838 9.49825e-05
-1.7407e-07 -2.88013e-08 4.27972e-09
2.7636e-07 -1.06832e-06 1.16286e-06
2.78257e-06 -8.29807e-07 1.02666e-06
-0.000108076 -0.000726052 -0.000381381
-7.43029e-08 -1.59221e-08 1.88718e-08
2.17965e-06 -8.63889e-07 7.70466e-07
4.31652e-07 -7.78997e-07 8.34046e-07
3.45888e-07 -1.41472e-06 1.56993e-06
-1.98786e-06 -8.01606e-07 8.12485e-07
-1.56635e-06 -9.96703e-07 1.19059e-06
0.000466123 -0.00112374 -0.000124402
6.16875e-08 -4.72173e-09 1.15954e-08
7.85017e-05 1.2787e-05 -0.000255438
-4.25531e-07 -1.07394e-06 9.57882e-07
9.38266e-07 -1.10204e-06 1.19662e-06
2.9833e-06 -2.77743e-06 3.03152e-06
-1.84171e-06 -2.03037e-06 2.35168e-06
-1.59134e-06 -8.6144e-07 8.47583e-07
-1.2033e-06 -8.9637e-07 7.95881e-07
-1.45864e-06 -1.62824e-06 1.565e-06
-0.00101851 0.000270132 0.000114825
-3.05447e-06 -1.37019e-06 1.17931e-06
-4.9082e-07 -3.96765e-07 2.52769e-07
3.55082e-06 -4.70973e-06 4.95634e-06
7.16114e-07 -1.93061e-06 1.97411e-06
2.69037e-07 -1.74143e-07 1.51682e-07
9.21525e-07 -1.87018e-07 1.45045e-07
-5.62173e-08 -1.20628e-08 8.76842e-09
-0.000218648 -0.000680937 -8.99015e-05
-8.10821e-08 -8.21151e-07 8.86441e-07
1.5693e-06 -7.95533e-07 7.82661e-07
-2.45889e-07 -7.67398e-07 8.96702e-07
0.000516835 -0.000798265 0.00025856
-0.00146852 0.000116831 0.000480304
-6.50835e-07 -5.07592e-07 6.59685e-07
-1.19731e-06 -2.02536e-06 2.06791e-06
-5.40854e-07 -2.44712e-07 1.47724e-07
1.13151e-07 -9.89237e-08 1.11656e-07
3.13532e-07 -8.87265e-07 8.32631e-07
-3.52008e-07 -2.64367e-07 3.74644e-07
-1.71044e-07 -1.28393e-06 1.42909e-06
-4.3781e-07 -8.59413e-07 9.96997e-07
9.08147e-07 -1.05644e-06 1.11632e-06
7.88206e-07 -1.12139e-07 2.32633e-07
2.02495e-06 -8.4284e-07 9.84036e-07
1.34886e-06 -6.07482e-07 6.44156e-07
1.10185e-06 -3.70676e-07 4.99324e-07
1.88325e-06 -1.58032e-06 1.78448e-06
-1.91685e-07 -8.44026e-07 7.50921e-07
-6.05578e-07 -1.30173e-07 2.47097e-07
-8.10856e-07 -2.75454e-07 5.03731e-07
-4.08523e-07 -1.25163e-07 2.04879e-07
2.44286e-07 -7.11337e-07 7.98668e-07
-5.64101e-07 -1.55141e-07 8.30535e-08
8.05218e-07 -1.64735e-06 1.73201e-06
0.000259832 -0.000737818 -0.000613671
-1.40958e-06 -1.98423e-06 2.12403e-06
1.42155e-06 -1.51131e-06 1.59023e-06
5.44781e-07 -2.08102e-06 2.0361e-06
0.000279751 -0.000789268 0.00038032
-1.24647e-07 -7.45965e-08 9.35911e-08
-1.49558e-06 -8.54896e-07 7.47167e-07
-2.35076e-06 -1.57171e-06 1.63687e-06
-1.21656e-06 -1.04478e-06 1.1492e-06
9.069e-07 -6.67653e-07 6.02598e-07
1.13212e-06 -9.76985e-07 9.96379e-07
1.03e-06 -5.20392e-07 4.56321e-07
6.59426e-07 -7.79928e-07 7.85034e-07
-3.50817e-07 -6.82076e-08 2.04897e-07
7.85809e-07 -2.4797e-07 3.86495e-07
-2.98635e-07 -1.48153e-07 7.09724e-08
-4.60534e-07 -1.85621e-07 9.74547e-08
7.5562e-07 -1.28678e-06 1.31612e-06
1.92782e-06 -4.74078e-07 6.07967e-07
1.24884e-07 -1.28161e-06 1.33343e-06
1.17222e-06 -5.82751e-07 7.27168e-07
1.94558e-06 -1.1497e-06 1.19129e-06
0.00027655 -0.000378413 0.000228202
2.18586e-07 -2.1978e-08 1.95131e-08
-7.52271e-06 0.000456738 0.000105676
1.05826e-06 -2.35351e-07 2.97468e-07
1.53447e-06 -4.18893e-07 4.07072e-07
1.20703e-06 -8.63412e-07 1.12125e-06
9.21265e-07 -7.04613e-07 7.91615e-07
-8.26311e-07 -7.65064e-07 5.48838e-07
-9.60596e-07 -6.11237e-07 4.316e-07
1.78145e-07 -1.31937e-08 2.42975e-09
5.72296e-07 -1.01064e-06 1.00383e-06
-5.25534e-07 -1.28575e-06 1.3702e-06
1.36742e-06 -9.78684e-07 9.63655e-07
-1.17866e-06 -5.09536e-07 6.28495e-07
-1.55673e-07 -1.38903e-07 9.51247e-08
-1.20122e-06 -1.28914e-06 1.30075e-06
7.63111e-08 -1.53216e-07 2.00717e-07
7.77742e-07 -4.67658e-07 5.85699e-07
2.05129e-06 -1.39405e-06 1.59746e-06
4.22131e-07 -4.33742e-07 4.47463e-07
-3.24937e-07 -1.63345e-06 1.71789e-06
1.06911e-06 -4.05363e-07 3.71904e-07
-1.27297e-06 -1.17172e-06 9.80784e-07
5.56092e-07 -1.36298e-07 9.17759e-08
-0.000731787 -0.000149499 0.000206268
-3.96669e-07 -2.40078e-07 3.7125e-07
-1.0297e-06 -5.10894e-07 3.82068e-07
5.22519e-07 -4.28181e-07 4.68103e-07
6.89854e-07 -3.01259e-07 2.29154e-07
-6.33633e-07 -3.69061e-07 2.05231e-07
-1.69882e-07 -3.79776e-07 4.77665e-07
0.000719569 -0.00080384 -2.08997e-06
-0.000189641 -4.85168e-05 0.000211882
9.19583e-07 -2.62283e-07 4.45279e-07
1.3347e-06 -8.4983e-07 9.79919e-07
-2.74047e-07 -3.68093e-07 2.89562e-07
2.42018e-07 -1.23953e-06 1.32374e-06
5.23638e-07 -3.83624e-07 4.39747e-07
-9.6037e-07 -4.75933e-07 6.94142e-07
1.16221e-06 -1.44546e-06 1.52411e-06
0.000339021 -3.13249e-06 0.000254731
1.79221e-06 -9.96379e-07 1.13615e-06
8.97761e-09 -9.84893e-08 7.70949e-08
0.000573519 -0.000499843 -6.37851e-06
-3.3874e-08 -1.67716e-07 2.01024e-07
0.000962601 -0.000277454 -0.000210358
1.557e-06 -1.32774e-06 1.44897e-06
9.89238e-07 -7.94957e-07 8.72769e-07
9.66759e-05 -0.000331235 2.39814e-05
5.10849e-07 -4.12178e-07 4.5702e-07
-0.000273535 -0.000304531 -0.000267266
-2.06185e-07 -4.68854e-07 4.26657e-07
2.56796e-07 -4.19536e-07 4.41879e-07
1.12931e-06 -2.31455e-07 3.79554e-07
-4.29234e-07 -1.47096e-06 1.48831e-06
1.63448e-08 -1.94963e-07 1.65069e-07
-0.000697242 -0.000745681 -8.86271e-05
-3.95395e-07 -4.83072e-07 4.62784e-07
-4.53748e-07 -1.60991e-07 1.41909e-07
-4.40258e-07 -4.64072e-07 4.25257e-07
-0.000583886 -0.000537944 -2.7528e-05
1.70677e-06 -8.92661e-07 9.51188e-07
1.59521e-06 -1.1415e-06 1.22513e-06
-3.33949e-07 -4.78615e-07 4.38974e-07
3.96329e-07 -4.29132e-07 4.59083e-07
4.61792e-08 -3.0976e-08 8.14793e-09
0.000179752 0.000668299 -0.000267241
-0.000108211 0.000106883 8.00841e-05
5.76226e-05 -0.000243244 3.96491e-05
1.70484e-06 -8.62178e-07 9.6407e-07
4.42013e-07 -3.67573e-07 3.8162e-07
8.0822e-07 -2.7544e-07 1.98251e-07
-2.36884e-07 -4.40889e-07 5.0295e-07
-4.54589e-06 -0.000166796 7.46208e-05
8.00571e-05 0.000557244 0.000157666
-1.39598e-07 -2.88161e-08 8.66678e-09
-1.90234e-07 -2.23712e-08 1.77646e-08
2.42884e-07 -8.96489e-07 9.91679e-07
-5.2471e-08 -2.34426e-08 1.86523e-08
1.91018e-05 0.00042654 -0.000148878