# vtk DataFile Version 4.2
vtk output
ASCII
DATASET UNSTRUCTURED_GRID

POINTS 343 double
0.00112229 0.00419495 7.61657e-08
0.00217074 0.00498262 0.00217526
0 0.00419538 0.00112517
0.00193009 0.00195456 0.00194208
0.00517054 0.00240787 0.00503141
0.00517319 0.00383088 0.00639662
0.00762271 0.0047773 0.00499688
0.00622407 0.00485163 0.00369051
0.00683795 0.00329024 0.00691222
0.00499107 0.00499325 0.00499905
0.00418303 0.00111898 0.00999826
0.00528327 0.00208139 0.00790294
0.00419285 -6.51191e-06 0.00831642
0.00201299 0.00200258 0.00803314
0.00428841 0.00253359 0.00999825
0.00695675 0.00644824 0.0069451
0.00641323 0.00618365 0.00518165
0.00226093 0.00218476 0.00514599
0 0.00143586 0.00417514
0.00159461 0.00346618 0.00403701
0.00683718 0.0031956 0.00315991
0.00774692 0.00221523 0.00506178
0 0.00270918 0.00154168
0.00415793 0.00142936 -4.45865e-07
0.00500795 0.00218887 0.00219705
0.00396193 0.0035272 0.00160251
0.00134573 -5.64357e-07 0.00405997
0.00418408 -6.92354e-06 0.00168759
0.00262497 0.00695179 -8.48558e-08
0.00193767 0.00805278 0.00194482
0.00408636 0.00624844 0.00164449
0.00800284 0.0079879 0.00799469
0.0079665 0.00481756 0.00801975
0.00838814 0.0060817 0.0059453
0.00999626 0.00882839 0.00418837
0.00757544 0.00763738 0.00496161
0.00856367 0.00998226 0.00416383
0.00797331 0.00797301 0.00201364
0.0035369 0.00303692 0.00695912
0.00443889 0.00366249 0.00832313
0.00389366 0.00160118 0.0059686
0.00500552 0.00766903 0.00767563
0.00198968 0.00800798 0.00798955
0.00282684 0.00999754 0.00712696
0.00391592 0.00839997 0.00595737
0 0.00695361 0.00262895
0.00164632 0.00623933 0.00408784
0 0.0040177 0.00850214
0.0023153 0.00498581 0.00766136
0.00143367 0.00417452 0.00999991
0.00717618 0.00711959 0.00999556
0.00611921 0.00597179 0.00841569
0.00205159 0.00794147 0.00474176
0.00304364 0.00694307 0.00646747
0.00158694 0.0060784 0.00592595
0.0099903 0.00578656 0.00831078
0 0.00718191 0.00711644
0.00158405 0.0057735 -1.05322e-09
0 0.00577432 0.00158701
0.00999367 0.00716025 0.00711028
0.00286882 0.00334955 0.00999927
0.00997166 0.00141224 0.00417045
0.00803633 0.00194515 0.0019766
0.00838955 0.00350432 0.00399561
0.00372665 0.00164861 0.00412796
0.00150903 0.00999969 0.00581498
0.00281113 -3.16356e-06 0.00712747
0.00611166 0.00417257 0.00837418
0.00999099 0.00725228 0.00419068
0.0085309 -1.94779e-05 0.00416465
0.00334085 0.00287003 -2.51686e-07
0.00270198 0.00153917 0.00999933
0.00281933 -3.5422e-06 0.00283183
0.00479879 0.00519467 0.00755323
0.00315826 0.00314655 0.00316712
0 0.00849157 0.00581511
0.0048649 0.00367025 0.00378543
0.0015368 0.00270869 2.26649e-09
0.0058005 0.00831701 0.00999672
0.00598424 0.00999047 0.0085032
0.00421369 0.00999468 0.00831646
0.00401842 0.00849889 0.00999814
0.00999671 0.00846968 0.00580934
0.00314682 0.00683373 0.00315062
0 0.00748929 0.00137438
0.00137285 0.00748898 8.13251e-09
0 0.00287343 0.00335182
0 0.00580816 0.00831736
0 0.00429792 0.00253898
0.00253262 0.00429608 -5.38755e-08
0.00143424 0.0058192 0.00999991
0.00517539 0.00646931 0.00639906
0.0036039 0.00650963 0.00823323
0.00693605 0.00261472 0.00999598
0.0080029 0.00194201 0.00803141
0.00694356 -1.45814e-05 0.00308006
0.00600171 0.00165386 0.00361142
0.00997553 0.00285052 0.00334736
0 0.00140616 0.00256446
0.00637255 0.00821795 0.00641872
0.00579619 0.00142471 -9.06623e-07
0.0060213 0.00354223 0.0016018
0.00315621 0.00999686 0.00582481
0.00855998 0.00998245 0.00582888
0.0025537 0.00140335 -6.91668e-08
0.0059509 -1.16423e-05 0.00149313
0.00627815 0.00827794 0.0036155
0.00852728 -1.93109e-05 0.00582943
0.00618897 0.00166204 0.00636324
0.00140283 0.00256407 0.00999996
0.00710747 0.00716929 -2.14118e-06
0.00516295 0.00768307 0.0021678
0.00593427 0.0060848 0.00160041
0 0.00686719 0.00578184
0.00996995 0.00138234 0.00256032
0.00177251 0.00360995 0.00640777
0.00999354 0.00846472 0.00261897
0.00840213 0.00617268 0.00412929
0.00597908 0.00998986 0.00149216
0.00694564 -1.42635e-05 0.0069237
0.00997335 0.00141204 0.00581433
0.00838081 0.00355625 0.00605692
0.00150239 -6.98017e-07 0.00581515
0 0.0013659 0.00748679
0.00136427 -5.64529e-07 0.0075289
0.00999124 0.00684544 0.00577617
0.00581137 0.00848228 -1.46267e-06
0 0.0075208 0.00859127
0.00136542 0.00748649 0.00999982
0.00422958 0.00820086 0.00362766
0.00859449 0.00998235 0.00750717
0.00999899 0.00860847 0.00751994
0.005759 0.00157699 0.00999696
0.00724858 0.00417521 0.00999565
0 0.0057735 0.00666667
0.00137016 0.00999963 0.00752889
0 0.00863025 0.00752641
0.00855593 -1.98543e-05 0.00250449
0.00998838 0.00693154 0.00262433
0.00844789 0.00632519 0.00215973
0.00850255 0.00580727 0.00999444
0.00747028 0.00135908 0.00999539
0.00856168 -1.94599e-05 0.00750739
0.00997477 0.00134253 0.00748069
0 0.00143551 0.00581971
0.00595631 -1.11524e-05 0.00850321
0.00419462 -6.92181e-06 0.00339941
0.00791852 0.00469229 0.00203183
0.00997942 0.00427553 0.00253463
0.00423056 0.00999449 0.00666547
0.00283518 0.00999761 0.0028317
0.00130725 -6.21191e-07 0.0024183
0 0.00727418 0.00419576
0.00998847 0.00575182 0.00666071
0.00697394 0.00998707 0.0030792
0.00750921 0.0086233 0.00999521
0 0.00574334 0.00336387
0 0.0043297 0.00416652
0.00686418 0.00577295 0.00999598
0.00997962 0.00299962 0.00690937
0.00420846 -6.68932e-06 0.00666583
0.00248022 0.00999789 0.00861109
0.00745885 0.00135001 -1.86649e-06
0.00577195 0.00665863 0.00999675
0.00999634 0.00749923 0.00858449
0.00860693 0.00753674 0.00999425
0.00689355 0.00300914 -1.53298e-06
0.00335733 0.00574067 -1.95232e-07
0.00752121 0.00861591 -2.57617e-06
0.00751457 0.00998512 0.00138459
0.00577378 0.0068586 -1.37891e-06
0.00696623 0.00635897 0.00303118
0.00748329 -1.65945e-05 0.00138568
0.00288153 0.00499736 0.00999915
0.00432707 0.00582914 0.00999799
0.00432342 0.00416208 0.00999805
0.00752105 0.00998569 0.00861159
0.00246659 -2.63016e-06 0.00861131
0.00998496 0.00572138 0.00335921
0 0.00302218 0.00691532
0.00998448 0.0039957 0.00849558
0.00848036 0.0039999 -2.67669e-06
0.00997324 0.00268596 0.00153776
0 0.00244495 0.00857025
0.00244645 0.00856844 0.00999916
0.00748985 -1.60562e-05 0.00861158
0.00847029 0.00260621 0.00999447
0.00883891 0.00417571 0.00999411
0.00567376 0.00999101 0.00583143
0.00518391 0.0075767 0.00503105
0.00564485 0.00999095 0.00421362
0.00697592 0.00998739 0.00692335
0.00302155 0.00691348 0.00999888
0.00415565 0.00432515 -3.99273e-07
0.00282255 -3.62965e-06 0.00440453
0.0031392 -4.04e-06 0.00582524
0.00997775 0.00417274 0.00112119
0.00363613 0.00833366 0.00158773
0.00998114 0.00430745 0.00416166
0.00665389 0.00576229 -1.61245e-06
0.00858884 0.00998195 0.00250342
0 0.00848692 0.00262374
0.00135174 0.00999969 0.00405985
0 0.00885053 0.00419359
0.00419194 0.00884499 -6.96062e-07
0.00420588 0.00999434 0.00168694
0.0049889 0.00478517 0.00237795
0.00720186 0.00450837 -1.81948e-06
0.00561813 -1.06652e-05 0.00421438
0.00564712 -1.05853e-05 0.00583187
0.0013131 0.00999971 0.00241806
0.00854322 0.00242624 -2.59744e-06
0.00998487 0.0044998 0.00721345
0.00711755 0.00998684 0.00499732
0.00573296 0.00335537 0.009997
0.00244614 -2.90638e-06 0.00135654
0.00997935 0.00242215 0.00856375
0.00239172 0.00478992 0.00499976
0.00581795 0.00432105 -1.05621e-06
0.00830183 0.00579142 -2.81964e-06
0.00548352 0.00999165 0.00721834
0.00998281 0.00430802 0.00582779
0.0054042 0.00999146 0.0027742
0.0070869 -1.48154e-05 0.004998
0.00283795 0.00999761 0.00440415
0 0.00452174 0.00721958
0.00452119 0.00721517 0.00999781
0.00545738 -9.88863e-06 0.00721838
0.00359761 0.00507082 0.00359617
0.00425461 0.00999445 0.0050073
0.00423194 -6.86458e-06 0.00500795
0.0036664 0.0052138 0.00617403
0 0.005744 0.00499998
0 0.00433013 0.00583333
0.00499024 0.00573783 -7.76002e-07
0.00497916 0.00633308 0.00355284
0.00537799 -1.01103e-05 0.00277502
0.00998665 0.00572221 0.00499468
0.00368744 0.00640472 0.00484345
0.00573804 0.00499227 0.00999691
0.00998338 0.00575215 0.0015828
0 0.00666667 0
0.008581 0.00750331 -3.26719e-06
0.00331643 -5.32968e-06 2.56177e-07
0 0.01 0.00666667
0.00500651 0.00999264 0.00999755
0 0.00288419 0.00499914
0.009989 0.00746709 0.00137005
0.00998503 0.00664442 -4.2818e-06
0 0.005 0.01
0.00498218 0.00287676 -6.99176e-07
0 0.005 0
0.00996608 -2.44327e-05 0.00332908
0.0100027 0.00997757 0.00666044
0.0041907 0.00726952 -6.18072e-07
0.00997718 0.00286147 0.00499403
0.00497601 -9.52058e-06 -2.6065e-07
0 0 0.00666667
0.00379081 0.00361311 0.00522584
0.00498254 -9.05945e-06 0.00999722
0.00996943 -2.41861e-05 0.00666096
0 0 0.005
0.00877873 0.00998112 0.00121641
0.00999322 0.00875739 0.00121559
0.00996772 -2.42766e-05 0.00499505
0.00997949 0.00497739 -4.03666e-06
0.00121548 0.00121935 -2.51331e-08
0 0.00122008 0.00122008
0 0.00333333 0.01
0 0.00666667 0.01
0.00877364 0.00876135 -3.57265e-06
0.00999938 0.0099772 0.00332818
0.00421711 0.00999442 0.00339888
0.00999489 0.00664521 0.00999293
0 0.00333333 0
0 0.00122008 0.00877992
0.00121552 -7.13266e-07 0.00877966
0.00121663 0.00121957 0.0100001
0.00878607 0.00998171 0.0087743
0.00122014 0.00877952 0.00999983
0 0.00877992 0.00877992
0.0100008 0.00875811 0.00877308
0.00666635 0.00998756 -2.33457e-06
0.00996799 0.00119599 0.00121637
0.00122089 0.0099995 0.00877998
0.00878337 0.00876218 0.00999409
0.0099893 0.0049783 0.00999298
0 0 0.00333333
0.00663666 -1.40793e-05 -1.03084e-06
0.00874569 -2.06667e-05 0.00121757
0.00120612 -7.87743e-07 0.00121198
0 0.00877992 0.00122008
0.00121933 0.00877941 6.67661e-08
0.00121168 0.00999956 0.00121138
0.00997553 0.00119656 0.00877323
0.00875827 0.0012005 0.0099941
0.00664505 -1.36511e-05 0.00999567
0.00874853 0.00119991 -2.62767e-06
0.00875314 -2.0156e-05 0.00877422
0.00997397 0.00331027 -3.82227e-06
0.00333817 0.00999611 0.00999893
0.00246011 0.0099981 0.00135613
0.00667447 0.0099883 0.00999615
0.00998374 0.00331111 0.00999299
0 0.01 0.005
0.00262219 0.00848481 -1.11912e-07
0.010001 0.0099774 0.00499441
0 0.01 0.00333333
0 0.00166667 0
0.00996444 -2.46571e-05 0.001663
0 0.00166667 0.01
0 0.00833333 0
0.00999071 0.00831078 -4.47814e-06
0.0099711 -2.4214e-05 0.0083267
0.00999778 0.009977 0.00166195
0.0100044 0.00997761 0.00832659
0.0016689 0.00999868 0.00999971
0 0.01 0.00833333
0.00833167 0.00998238 -3.4302e-06
0.00829904 -1.9475e-05 -2.15128e-06
0.00830855 -1.8961e-05 0.00999425
0.00834093 0.00998303 0.00999455
0 0 0.00833333
0.0100006 0.00831165 0.00999288
0.00165806 -1.88799e-06 1.15525e-07
0 0 0.00166667
0.0033346 0.00999618 -4.5458e-07
0.00997822 0.00164329 0.00999293
0.00996841 0.00164264 -3.67199e-06
0.00166012 -1.52162e-06 0.00999982
0.00166737 0.00999892 -6.20717e-08
0 0.01 0.00166667
0.0100062 0.00997769 0.00999292
0 0 0.01
0.00999629 0.0099768 -4.74994e-06
0.00997273 -2.43336e-05 0.00999269
0 0.01 0.01
0.0099629 -2.48068e-05 -3.43921e-06
0 0.01 0
0 0 0
0.00500059 0.00999217 -1.26331e-06
0.00332103 -4.84484e-06 0.00999851
0 0.00833333 0.01

CELLS 343 686
1 0
1 1
1 2
1 3
1 4
1 5
1 6
1 7
1 8
1 9
1 10
1 11
1 12
1 13
1 14
1 15
1 16
1 17
1 18
1 19
1 20
1 21
1 22
1 23
1 24
1 25
1 26
1 27
1 28
1 29
1 30
1 31
1 32
1 33
1 34
1 35
1 36
1 37
1 38
1 39
1 40
1 41
1 42
1 43
1 44
1 45
1 46
1 47
1 48
1 49
1 50
1 51
1 52
1 53
1 54
1 55
1 56
1 57
1 58
1 59
1 60
1 61
1 62
1 63
1 64
1 65
1 66
1 67
1 68
1 69
1 70
1 71
1 72
1 73
1 74
1 75
1 76
1 77
1 78
1 79
1 80
1 81
1 82
1 83
1 84
1 85
1 86
1 87
1 88
1 89
1 90
1 91
1 92
1 93
1 94
1 95
1 96
1 97
1 98
1 99
1 100
1 101
1 102
1 103
1 104
1 105
1 106
1 107
1 108
1 109
1 110
1 111
1 112
1 113
1 114
1 115
1 116
1 117
1 118
1 119
1 120
1 121
1 122
1 123
1 124
1 125
1 126
1 127
1 128
1 129
1 130
1 131
1 132
1 133
1 134
1 135
1 136
1 137
1 138
1 139
1 140
1 141
1 142
1 143
1 144
1 145
1 146
1 147
1 148
1 149
1 150
1 151
1 152
1 153
1 154
1 155
1 156
1 157
1 158
1 159
1 160
1 161
1 162
1 163
1 164
1 165
1 166
1 167
1 168
1 169
1 170
1 171
1 172
1 173
1 174
1 175
1 176
1 177
1 178
1 179
1 180
1 181
1 182
1 183
1 184
1 185
1 186
1 187
1 188
1 189
1 190
1 191
1 192
1 193
1 194
1 195
1 196
1 197
1 198
1 199
1 200
1 201
1 202
1 203
1 204
1 205
1 206
1 207
1 208
1 209
1 210
1 211
1 212
1 213
1 214
1 215
1 216
1 217
1 218
1 219
1 220
1 221
1 222
1 223
1 224
1 225
1 226
1 227
1 228
1 229
1 230
1 231
1 232
1 233
1 234
1 235
1 236
1 237
1 238
1 239
1 240
1 241
1 242
1 243
1 244
1 245
1 246
1 247
1 248
1 249
1 250
1 251
1 252
1 253
1 254
1 255
1 256
1 257
1 258
1 259
1 260
1 261
1 262
1 263
1 264
1 265
1 266
1 267
1 268
1 269
1 270
1 271
1 272
1 273
1 274
1 275
1 276
1 277
1 278
1 279
1 280
1 281
1 282
1 283
1 284
1 285
1 286
1 287
1 288
1 289
1 290
1 291
1 292
1 293
1 294
1 295
1 296
1 297
1 298
1 299
1 300
1 301
1 302
1 303
1 304
1 305
1 306
1 307
1 308
1 309
1 310
1 311
1 312
1 313
1 314
1 315
1 316
1 317
1 318
1 319
1 320
1 321
1 322
1 323
1 324
1 325
1 326
1 327
1 328
1 329
1 330
1 331
1 332
1 333
1 334
1 335
1 336
1 337
1 338
1 339
1 340
1 341
1 342

CELL_TYPES 343
1
1
1
1
1
1
1
1
1
1
1
1
1
1
1
1
1
1
1
1
1
1
1
1
1
1
1
1
1
1
1
1
1
1
1
1
1
1
1
1
1
1
1
1
1
1
1
1
1
1
1
1
1
1
1
1
1
1
1
1
1
1
1
1
1
1
1
1
1
1
1
1
1
1
1
1
1
1
1
1
1
1
1
1
1
1
1
1
1
1
1
1
1
1
1
1
1
1
1
1
1
1
1
1
1
1
1
1
1
1
1
1
1
1
1
1
1
1
1
1
1
1
1
1
1
1
1
1
1
1
1
1
1
1
1
1
1
1
1
1
1
1
1
1
1
1
1
1
1
1
1
1
1
1
1
1
1
1
1
1
1
1
1
1
1
1
1
1
1
1
1
1
1
1
1
1
1
1
1
1
1
1
1
1
1
1
1
1
1
1
1
1
1
1
1
1
1
1
1
1
1
1
1
1
1
1
1
1
1
1
1
1
1
1
1
1
1
1
1
1
1
1
1
1
1
1
1
1
1
1
1
1
1
1
1
1
1
1
1
1
1
1
1
1
1
1
1
1
1
1
1
1
1
1
1
1
1
1
1
1
1
1
1
1
1
1
1
1
1
1
1
1
1
1
1
1
1
1
1
1
1
1
1
1
1
1
1
1
1
1
1
1
1
1
1
1
1
1
1
1
1
1
1
1
1
1
1
1
1
1
1
1
1
1
1
1
1
1
1
1
1
1
1
1
1
1
1
1
1
1
1
1
1
1
1
1
1
1
1
1
1
1
1

POINT_DATA 343
FIELD FieldData 8

NodeID_(#) 1 343 int
0
1
2
3
4
5
6
7
8
9
10
11
12
13
14
15
16
17
18
19
20
21
22
23
24
25
26
27
28
29
30
31
32
33
34
35
36
37
38
39
40
41
42
43
44
45
46
47
48
49
50
51
52
53
54
55
56
57
58
59
60
61
62
63
64
65
66
67
68
69
70
71
72
73
74
75
76
77
78
79
80
81
82
83
84
85
86
87
88
89
90
91
92
93
94
95
96
97
98
99
100
101
102
103
104
105
106
107
108
109
110
111
112
113
114
115
116
117
118
119
120
121
122
123
124
125
126
127
128
129
130
131
132
133
134
135
136
137
138
139
140
141
142
143
144
145
146
147
148
149
150
151
152
153
154
155
156
157
158
159
160
161
162
163
164
165
166
167
168
169
170
171
172
173
174
175
176
177
178
179
180
181
182
183
184
185
186
187
188
189
190
191
192
193
194
195
196
197
198
199
200
201
202
203
204
205
206
207
208
209
210
211
212
213
214
215
216
217
218
219
220
221
222
223
224
225
226
227
228
229
230
231
232
233
234
235
236
237
238
239
240
241
242
243
244
245
246
247
248
249
250
251
252
253
254
255
256
257
258
259
260
261
262
263
264
265
266
267
268
269
270
271
272
273
274
275
276
277
278
279
280
281
282
283
284
285
286
287
288
289
290
291
292
293
294
295
296
297
298
299
300
301
302
303
304
305
306
307
308
309
310
311
312
313
314
315
316
317
318
319
320
321
322
323
324
325
326
327
328
329
330
331
332
333
334
335
336
337
338
339
340
341
342

Component_(#) 1 343 int
0
0
0
0
0
0
0
0
0
0
0
0
0
0
0
0
0
0
0
0
0
0
0
0
0
0
0
0
0
0
0
0
0
0
0
0
0
0
0
0
0
0
0
0
0
0
0
0
0
0
0
0
0
0
0
0
0
0
0
0
0
0
0
0
0
0
0
0
0
0
0
0
0
0
0
0
0
0
0
0
0
0
0
0
0
0
0
0
0
0
0
0
0
0
0
0
0
0
0
0
0
0
0
0
0
0
0
0
0
0
0
0
0
0
0
0
0
0
0
0
0
0
0
0
0
0
0
0
0
0
0
0
0
0
0
0
0
0
0
0
0
0
0
0
0
0
0
0
0
0
0
0
0
0
0
0
0
0
0
0
0
0
0
0
0
0
0
0
0
0
0
0
0
0
0
0
0
0
0
0
0
0
0
0
0
0
0
0
0
0
0
0
0
0
0
0
0
0
0
0
0
0
0
0
0
0
0
0
0
0
0
0
0
0
0
0
0
0
0
0
0
0
0
0
0
0
0
0
0
0
0
0
0
0
0
0
0
0
0
0
0
0
0
0
0
0
0
0
0
0
0
0
0
0
0
0
0
0
0
0
0
0
0
0
0
0
0
0
0
0
0
0
0
0
0
0
0
0
0
0
0
0
0
0
0
0
0
0
0
0
0
0
0
0
0
0
0
0
0
0
0
0
0
0
0
0
0
0
0
0
0
0
0
0
0
0
0
0
0
0
0
0
0
0
0
0
0
0
0
0
0
0
0
0
0
0
0
0
0
0
0
0
0

NodalMass_(kg) 1 343 double
3.15563e-06
1.41304e-05
2.20912e-06
1.71484e-05
8.42e-06
9.09306e-06
9.93033e-06
7.52198e-06
6.81096e-06
5.58223e-06
3.10888e-06
1.07575e-05
4.87011e-06
1.64955e-05
3.0246e-06
8.05984e-06
6.703e-06
1.0877e-05
4.18978e-06
8.16106e-06
6.14143e-06
1.17902e-05
2.23114e-06
4.25176e-06
1.09915e-05
7.41467e-06
4.21871e-06
3.92484e-06
3.08766e-06
1.31268e-05
7.72627e-06
1.65404e-05
1.19037e-05
7.29666e-06
3.81683e-06
1.11001e-05
3.81317e-06
1.39137e-05
6.37414e-06
8.00975e-06
7.6712e-06
1.18847e-05
1.6399e-05
2.78633e-06
8.93599e-06
2.58087e-06
7.57362e-06
4.23241e-06
1.31286e-05
3.80168e-06
2.7746e-06
7.16776e-06
1.21307e-05
5.11765e-06
8.19728e-06
4.58094e-06
2.79503e-06
3.26126e-06
4.12443e-06
2.11915e-06
3.35177e-06
3.61669e-06
1.56838e-05
7.33679e-06
8.24695e-06
5.00369e-06
2.82625e-06
7.20276e-06
3.26815e-06
4.18751e-06
2.02785e-06
2.42152e-06
3.11835e-06
5.97459e-06
5.87101e-06
4.09374e-06
5.45463e-06
2.28825e-06
4.49759e-06
4.38192e-06
4.50892e-06
4.39234e-06
4.27273e-06
5.32031e-06
1.53201e-06
2.38869e-06
2.02885e-06
4.38798e-06
3.17972e-06
3.14298e-06
4.61567e-06
5.87645e-06
8.18088e-06
2.48341e-06
1.53815e-05
3.49683e-06
7.35227e-06
2.01314e-06
2.0408e-06
7.98183e-06
4.41293e-06
7.1389e-06
1.20123e-06
5.03343e-06
1.61257e-06
4.12601e-06
8.73748e-06
4.37849e-06
7.97173e-06
2.13557e-06
3.38137e-06
9.48623e-06
7.40262e-06
1.80226e-06
2.10222e-06
7.98889e-06
1.87983e-06
7.44814e-06
4.19782e-06
2.37156e-06
4.31705e-06
6.06441e-06
4.30905e-06
2.16843e-06
1.8986e-06
1.81294e-06
3.89762e-06
2.44299e-06
1.65628e-06
8.01374e-06
1.64513e-06
2.3931e-06
3.01363e-06
2.99431e-06
1.36541e-06
1.87293e-06
2.09622e-06
1.94762e-06
1.87618e-06
6.37913e-06
4.58628e-06
2.02767e-06
1.61999e-06
2.41284e-06
3.8865e-06
4.44973e-06
2.29839e-06
1.17349e-05
3.11811e-06
1.354e-06
3.45063e-06
1.81846e-06
2.9382e-06
1.37381e-06
2.41464e-06
2.10451e-06
2.63927e-06
2.14166e-06
1.7943e-06
3.19976e-06
1.36989e-06
2.43489e-06
2.08158e-06
1.3601e-06
2.17203e-06
1.89924e-06
3.16996e-06
2.6119e-06
2.37677e-06
1.60225e-06
1.90684e-06
5.49206e-06
1.87878e-06
3.14313e-06
2.97301e-06
1.18454e-06
1.89263e-06
2.04166e-06
2.73572e-06
2.42405e-06
3.23083e-06
3.19752e-06
3.2142e-06
1.94492e-06
1.61196e-06
1.86876e-06
3.22435e-06
2.1114e-06
2.96917e-06
6.15288e-06
2.3097e-06
2.39729e-06
2.38029e-06
2.64508e-06
1.66557e-06
1.82377e-06
2.06583e-06
5.73271e-06
2.08467e-06
2.18324e-06
2.43522e-06
3.1188e-06
3.17316e-06
2.05447e-06
1.9592e-06
3.05718e-06
6.44327e-06
2.08796e-06
2.72615e-06
2.15709e-06
1.86812e-06
2.0028e-06
2.10999e-06
2.88994e-06
2.3222e-06
2.3979e-06
1.97629e-06
6.4127e-06
2.16225e-06
3.29198e-06
2.10223e-06
2.66566e-06
1.94415e-06
2.91865e-06
2.58116e-06
2.11703e-06
2.09534e-06
1.91719e-06
7.06046e-06
2.25203e-06
2.06378e-06
6.28159e-06
2.12147e-06
2.90924e-06
2.12921e-06
6.4487e-06
1.41701e-06
2.0682e-06
6.58062e-06
2.52584e-06
2.39732e-06
7.42191e-07
2.22368e-06
7.06751e-07
7.00657e-07
8.93749e-07
2.53536e-06
2.26535e-06
1.33607e-06
7.84725e-07
2.32303e-06
6.06694e-07
6.68276e-07
6.84307e-07
2.51242e-06
2.31629e-06
7.8367e-07
6.80839e-07
6.22692e-06
6.7471e-07
6.65305e-07
7.01158e-07
1.8232e-06
1.90695e-06
6.86722e-07
7.04792e-07
1.86445e-06
2.28572e-06
6.8045e-07
7.16005e-07
1.82373e-06
6.01079e-07
2.02791e-06
7.4579e-07
5.74423e-07
1.80052e-06
1.454e-06
2.2702e-06
1.80636e-06
2.15356e-06
1.79089e-06
1.79456e-06
6.8231e-07
2.24737e-06
1.45239e-06
1.79556e-06
6.97875e-07
6.24265e-07
6.62717e-07
1.44627e-06
1.40138e-06
2.15258e-06
1.82851e-06
1.3994e-06
1.43932e-06
2.19226e-06
6.97732e-07
1.77726e-06
1.79162e-06
6.54258e-07
7.3397e-07
2.34895e-06
7.10392e-07
6.56982e-07
6.26314e-07
2.18926e-06
6.12493e-07
6.03901e-07
5.92831e-07
5.12031e-07
5.11667e-07
4.9467e-07
4.97016e-07
4.96269e-07
5.33079e-07
4.94191e-07
4.97855e-07
4.86862e-07
4.90626e-07
4.94649e-07
4.94954e-07
4.91922e-07
4.89615e-07
4.96354e-07
4.95189e-07
4.82188e-07
1.10854e-06
5.3299e-07
5.44763e-07
5.36655e-07
5.15417e-07
5.01772e-07
5.53774e-07
5.53774e-07
5.53774e-07
5.53774e-07
5.53774e-07
5.53774e-07
5.50785e-07
5.50785e-07
7.45291e-07
7.11668e-07
4.9897e-07

NodalForce_(N) 3 343 double
3.48171e-07 -5.64011e-08 1.94895e-08
2.70423e-06 -8.48664e-07 6.34415e-07
0.000183113 0.000301826 0.000395436
-2.26855e-07 -1.0592e-06 6.29463e-07
-4.63777e-06 -4.90485e-06 3.08644e-06
-4.35596e-06 -4.48775e-06 3.59227e-06
-1.50614e-07 -1.09378e-05 8.79635e-06
2.11828e-06 -5.40373e-06 4.26294e-06
-5.64127e-06 -6.4803e-06 5.05065e-06
1.42161e-07 -2.3868e-06 1.87873e-06
-4.01551e-06 -1.49465e-06 1.10986e-06
-1.2141e-05 -6.96299e-06 5.10025e-06
-6.28618e-06 -2.52992e-06 1.52708e-06
-4.76944e-06 -9.05892e-07 8.52517e-07
-3.2279e-06 -1.22576e-06 1.15221e-06
9.44504e-08 -6.97117e-06 6.13295e-06
2.12124e-06 -4.91622e-06 4.03427e-06
-1.82028e-06 -8.5693e-07 5.99786e-07
-0.0011174 0.000556049 -3.4216e-05
-5.64369e-08 -1.73809e-07 1.01827e-07
-2.14378e-07 -5.9557e-06 4.34528e-06
-9.0281e-06 -1.51364e-05 1.09375e-05
-0.000421497 -0.00136266 -0.000687628
4.1196e-07 -2.0618e-06 1.29418e-06
-1.26285e-06 -6.61744e-06 4.89271e-06
1.94889e-06 -2.18793e-06 2.16819e-06
-7.83072e-07 -9.66178e-08 1.00463e-07
-1.67681e-06 -1.94742e-06 1.29153e-06
1.97948e-06 -2.83451e-07 3.48564e-07
4.36116e-06 -4.04401e-07 5.60275e-07
5.15178e-06 -1.76712e-06 2.31754e-06
3.86101e-06 -1.95889e-05 1.71756e-05
-8.59053e-06 -1.42286e-05 1.22464e-05
1.25115e-06 -9.49738e-06 7.90809e-06
5.7298e-06 -6.92932e-06 5.53011e-06
9.4372e-06 -1.1805e-05 9.54273e-06
6.84501e-06 -5.38764e-06 4.16021e-06
2.33309e-05 -1.65038e-05 1.37248e-05
-2.57369e-06 -1.4436e-06 1.10144e-06
-5.41592e-06 -2.78366e-06 2.93087e-06
-4.95593e-06 -2.85798e-06 1.44405e-06
1.63799e-06 -5.43724e-06 5.05786e-06
5.87452e-07 -8.85141e-07 6.00205e-07
1.18412e-06 -4.26169e-07 2.27549e-07
4.05874e-06 -2.55911e-06 1.69448e-06
0.000776717 0.000571304 -0.000347494
8.41877e-07 -3.0072e-07 1.98759e-07
-3.57296e-05 0.000861979 0.000116217
-1.11661e-06 -7.96839e-07 7.918e-07
-5.72443e-07 -1.06595e-07 6.39373e-08
-1.15237e-06 -2.6315e-06 2.48669e-06
-2.69773e-06 -4.75418e-06 4.7034e-06
2.27885e-06 -4.00804e-07 4.50025e-07
5.66469e-07 -5.65649e-07 5.23851e-07
1.75244e-07 -2.34861e-07 2.1361e-07
-2.09143e-06 -8.28888e-06 6.95908e-06
0.000601306 0.000549511 0.000593859
8.59381e-07 -1.22437e-07 8.13357e-08
-0.000111506 -4.10511e-05 -0.000280721
5.49267e-07 -3.80347e-06 3.19146e-06
-2.01193e-06 -4.96755e-07 5.91212e-07
-2.91822e-06 -7.27908e-06 5.32345e-06
-1.93823e-06 -2.1814e-05 1.57981e-05
-9.70342e-07 -1.02271e-05 7.8851e-06
-3.61805e-06 -2.86352e-06 1.39695e-06
1.05081e-06 -5.36231e-08 7.32078e-08
-2.13019e-06 -6.74815e-07 2.93424e-07
-5.94917e-06 -5.03533e-06 4.70344e-06
3.32867e-06 -5.86432e-06 4.75181e-06
-5.22897e-06 -6.79295e-06 4.70403e-06
7.41453e-07 -4.34397e-07 3.82468e-07
-1.91102e-06 -4.50828e-07 3.94039e-07
-1.51181e-06 -7.58639e-07 3.08519e-07
-2.10976e-06 -2.23231e-06 2.31703e-06
-2.07888e-07 -9.61422e-07 6.77816e-07
0.00112684 0.000460623 0.000337995
-2.80778e-07 -2.433e-06 1.83582e-06
2.56229e-07 -4.78607e-08 4.15241e-08
-6.33904e-07 -2.96941e-06 2.80427e-06
2.4273e-06 -3.16687e-06 2.87421e-06
1.71305e-06 -1.66845e-06 1.4786e-06
-4.41269e-07 -1.52303e-06 1.3656e-06
4.18778e-06 -7.69565e-06 6.29329e-06
1.86008e-06 -6.41364e-07 6.36911e-07
-3.23811e-06 -0.00096905 0.000287607
6.69615e-07 1.48415e-09 1.55567e-08
9.07501e-05 -0.000562983 0.000342385
-0.000409318 -0.000263936 8.40134e-05
-0.000216589 0.000173527 -0.000163721
1.36756e-06 -3.17915e-07 3.27727e-07
-5.732e-07 -8.16072e-08 8.46281e-08
6.37273e-07 -2.64818e-06 2.32702e-06
-1.37661e-06 -1.3152e-06 1.84807e-06
-4.0572e-06 -2.56466e-06 2.13113e-06
-2.42082e-05 -2.11133e-05 1.58334e-05
-3.08628e-06 -4.07281e-06 2.64562e-06
-3.75271e-06 -6.20433e-06 4.05621e-06
-3.16296e-07 -3.88379e-06 2.9645e-06
-8.78946e-05 2.86151e-05 -5.12627e-05
4.35794e-06 -6.1481e-06 4.84388e-06
3.63521e-07 -3.70694e-06 2.60055e-06
2.21697e-06 -5.36679e-06 4.44955e-06
6.73289e-07 -2.64434e-07 1.55484e-07
6.91101e-06 -7.11601e-06 5.56966e-06
1.55458e-07 -3.15907e-07 1.89778e-07
-2.2478e-06 -3.73235e-06 2.62752e-06
1.00448e-05 -6.58933e-06 5.11313e-06
-7.2306e-06 -7.06858e-06 4.91688e-06
-8.65928e-06 -7.00915e-06 4.643e-06
-4.66889e-07 -2.16074e-08 3.81511e-08
5.90937e-06 -3.18514e-06 2.89124e-06
1.0562e-05 -4.67415e-06 4.11763e-06
7.30571e-06 -4.51888e-06 4.45339e-06
-0.000520871 -0.000342837 -0.000604438
-8.91852e-07 -4.24682e-06 3.09736e-06
-7.65434e-07 -2.93638e-07 2.94449e-07
3.3455e-06 -3.41072e-06 2.76226e-06
4.82445e-06 -9.79449e-06 7.92673e-06
8.15724e-06 -3.17558e-06 2.53591e-06
-4.13879e-06 -2.78919e-06 1.77157e-06
-5.25329e-06 -8.6689e-06 6.39021e-06
-3.86488e-06 -8.38914e-06 6.62697e-06
-1.03827e-06 -1.66938e-07 8.48555e-08
0.000233995 0.000223156 4.08814e-05
-4.8848e-07 -8.05964e-08 8.48223e-09
8.95208e-07 -3.24648e-06 2.67059e-06
7.19588e-06 -2.56352e-06 2.36304e-06
-0.000113604 -0.000670497 -0.000287381
-1.27855e-07 -4.24398e-08 4.12406e-08
6.08974e-06 -2.67251e-06 1.72433e-06
1.58357e-06 -2.35241e-06 1.91094e-06
1.43983e-06 -4.29018e-06 3.60676e-06
-5.15705e-06 -2.39965e-06 1.88905e-06
-3.77659e-06 -3.01723e-06 2.76063e-06
0.000281329 -0.00106004 -0.000132984
2.42268e-07 -1.72273e-08 2.60406e-08
9.49927e-05 -5.10061e-05 -0.000283878
-1.65843e-06 -3.21295e-06 2.22246e-06
2.44578e-06 -3.35978e-06 2.74666e-06
7.52826e-06 -8.49594e-06 6.95034e-06
-3.97474e-06 -6.15201e-06 5.43622e-06
-4.14972e-06 -2.57282e-06 1.96825e-06
-3.3408e-06 -2.67012e-06 1.83595e-06
-3.98397e-06 -4.86752e-06 3.62033e-06
-0.00092398 0.000223628 0.000148819
-8.31466e-06 -4.05999e-06 2.71781e-06
-1.64527e-06 -1.1901e-06 5.91186e-07
7.99115e-06 -1.43375e-05 1.1395e-05
1.517e-06 -5.84108e-06 4.54209e-06
9.08566e-07 -5.29194e-07 3.36713e-07
2.61391e-06 -5.6249e-07 3.18652e-07
-2.26423e-07 -4.13458e-08 2.48547e-08
-0.000127651 -0.000596186 -0.000107201
-1.03449e-07 -2.48903e-06 2.04014e-06
4.3968e-06 -2.41204e-06 1.77564e-06
-6.08832e-08 -2.31399e-06 2.06349e-06
0.000498787 -0.000695882 0.000243401
-0.00140153 8.67921e-05 0.000417167
-1.40755e-06 -1.54174e-06 1.52741e-06
-3.20408e-06 -6.10205e-06 4.77146e-06
-1.54345e-06 -7.23444e-07 3.38458e-07
5.66168e-07 -3.06377e-07 2.49085e-07
2.22779e-07 -2.67058e-06 1.93317e-06
-6.86389e-07 -8.06458e-07 8.61972e-07
1.16386e-08 -3.89042e-06 3.28953e-06
-6.60842e-07 -2.59894e-06 2.2997e-06
1.67622e-06 -3.20693e-06 2.59567e-06
1.8822e-06 -3.65355e-07 5.44638e-07
5.25989e-06 -2.5839e-06 2.26193e-06
3.64696e-06 -1.84643e-06 1.46891e-06
2.74616e-06 -1.15122e-06 1.15215e-06
4.8726e-06 -4.85725e-06 4.0855e-06
-1.05852e-06 -2.52946e-06 1.74844e-06
-1.36208e-06 -3.84239e-07 5.74229e-07
-1.78215e-06 -8.42641e-07 1.16287e-06
-9.81056e-07 -3.78478e-07 4.74871e-07
1.19113e-06 -2.14898e-06 1.8342e-06
-1.54761e-06 -4.4902e-07 1.91234e-07
2.02444e-06 -4.99905e-06 3.98036e-06
0.000204987 -0.000740045 -0.000608561
-3.47449e-06 -5.99028e-06 4.91177e-06
3.06319e-06 -4.58798e-06 3.68002e-06
7.51609e-07 -6.27472e-06 4.69335e-06
0.000246293 -0.000723294 0.000319318
-1.60814e-07 -2.20074e-07 2.10942e-07
-4.05986e-06 -2.53706e-06 1.72384e-06
-5.96905e-06 -4.71901e-06 3.79451e-06
-2.93073e-06 -3.15492e-06 2.66136e-06
2.88579e-06 -2.01785e-06 1.35458e-06
3.42238e-06 -3.00571e-06 2.24603e-06
2.99594e-06 -1.57456e-06 1.02663e-06
2.286e-06 -2.3586e-06 1.78149e-06
-6.85412e-07 -2.18204e-07 4.67868e-07
1.75129e-06 -7.7231e-07 9.05288e-07
-9.31273e-07 -4.40582e-07 1.68203e-07
-1.36407e-06 -5.49542e-07 2.29328e-07
1.6386e-06 -3.8962e-06 3.03233e-06
5.09544e-06 -1.47893e-06 1.40136e-06
2.02355e-07 -3.8786e-06 3.07146e-06
2.80974e-06 -1.79855e-06 1.68381e-06
5.37167e-06 -3.48905e-06 2.71263e-06
0.000197962 -0.000291493 0.000249666
6.51787e-07 -5.97823e-08 3.56525e-08
-1.23007e-05 0.000406686 4.47894e-05
2.74945e-06 -7.30265e-07 6.88179e-07
4.18387e-06 -1.26506e-06 9.23893e-07
2.71077e-06 -2.68269e-06 2.58602e-06
2.05577e-06 -2.15092e-06 1.83556e-06
-2.64011e-06 -2.28588e-06 1.27625e-06
-2.79791e-06 -1.82047e-06 9.91396e-07
4.96615e-07 -3.61149e-08 2.0965e-09
9.62429e-07 -3.05245e-06 2.32613e-06
-1.27668e-06 -3.88843e-06 3.15891e-06
4.09961e-06 -2.96319e-06 2.1841e-06
-2.92346e-06 -1.53478e-06 1.46003e-06
-6.83568e-07 -4.31094e-07 2.31392e-07
-3.13191e-06 -3.8678e-06 3.01479e-06
1.83838e-07 -4.89975e-07 4.5496e-07
1.69858e-06 -1.43325e-06 1.3649e-06
4.93356e-06 -4.27712e-06 3.6867e-06
1.52709e-06 -1.31142e-06 1.01654e-06
-8.65173e-07 -4.94101e-06 3.958e-06
2.97621e-06 -1.22998e-06 8.35955e-07
-3.86212e-06 -3.50121e-06 2.26715e-06
1.64463e-06 -4.11085e-07 1.98208e-07
-0.00066431 -0.000126468 0.000149565
-7.10135e-07 -7.28828e-07 8.52453e-07
-2.87858e-06 -1.51775e-06 8.73607e-07
1.22255e-06 -1.34575e-06 1.05935e-06
2.07906e-06 -9.0987e-07 5.09094e-07
-1.92404e-06 -1.09773e-06 4.78417e-07
-3.28429e-07 -1.19134e-06 1.07468e-06
0.000631053 -0.00075723 -8.99525e-06
-9.6124e-05 -4.25386e-05 0.000207672
2.19838e-06 -8.30709e-07 1.03783e-06
3.50942e-06 -2.63506e-06 2.23674e-06
-1.00826e-06 -1.10452e-06 6.77413e-07
6.82855e-07 -3.7599e-06 3.04369e-06
1.50944e-06 -1.21279e-06 9.79399e-07
-2.21013e-06 -1.44731e-06 1.60641e-06
2.83469e-06 -4.39334e-06 3.50298e-06
0.000254178 1.59689e-06 0.000186283
4.54582e-06 -3.05116e-06 2.61301e-06
-1.01458e-07 -2.90948e-07 1.85882e-07
0.000519265 -0.000437928 -6.20152e-06
1.29613e-07 -5.01803e-07 4.63082e-07
0.000816688 -0.000317887 -0.000177243
4.02102e-06 -4.05267e-06 3.3258e-06
2.45386e-06 -2.42337e-06 2.01024e-06
0.000120218 -0.000304073 -1.53261e-05
9.21502e-07 -1.25574e-06 1.06445e-06
-0.000280221 -0.000305079 -0.000274998
-7.09046e-07 -1.3988e-06 9.87148e-07
8.43154e-07 -1.26667e-06 1.01266e-06
2.8356e-06 -7.30916e-07 8.81592e-07
-1.33151e-06 -4.43333e-06 3.43294e-06
-1.57373e-07 -5.80957e-07 3.89923e-07
-0.00063364 -0.000695096 -7.24992e-05
-1.20047e-06 -1.48955e-06 1.04691e-06
-1.20918e-06 -4.77957e-07 3.27607e-07
-1.2493e-06 -1.38291e-06 9.83541e-07
-0.000520274 -0.000474336 -2.71924e-05
4.60318e-06 -2.71454e-06 2.17161e-06
4.22115e-06 -3.47524e-06 2.80671e-06
-1.0108e-06 -1.4275e-06 1.0153e-06
9.19333e-07 -1.30529e-06 1.05952e-06
4.47939e-08 -9.20159e-08 1.67628e-08
0.000192643 0.00056973 -0.00018777
-5.55795e-05 7.18316e-05 2.8336e-05
0.000112679 -0.000231354 -2.07488e-05
4.43759e-06 -2.63885e-06 2.21077e-06
1.24195e-06 -1.11359e-06 8.71729e-07
2.29849e-06 -8.31055e-07 4.39535e-07
-4.56702e-07 -1.33492e-06 1.1646e-06
-4.15612e-05 -0.000130029 3.2634e-05
6.96678e-05 0.000525292 0.000139509
-3.82359e-07 -8.20658e-08 1.3801e-08
-4.95555e-07 -6.72654e-08 4.47363e-08
1.20653e-06 -2.70306e-06 2.2831e-06
-5.06581e-08 -6.60914e-08 3.90057e-08