# vtk DataFile Version 4.2
vtk output
ASCII
DATASET UNSTRUCTURED_GRID

POINTS 343 double
0.00112256 0.00419491 9.1178e-08
0.00217118 0.00498251 0.00217536
0 0.00419538 0.00112517
0.00193013 0.00195444 0.00194216
0.00516952 0.00240674 0.00503225
0.00517221 0.00382993 0.00639754
0.00762278 0.00477517 0.00499896
0.00622481 0.00485024 0.00369182
0.00683623 0.00328839 0.00691397
0.00499117 0.00499243 0.00499982
0.00418028 0.00111803 0.00999912
0.00528091 0.00208012 0.00790407
0.0041902 -7.54288e-06 0.00831717
0.00201242 0.00200247 0.00803325
0.00428608 0.00253279 0.00999917
0.00695666 0.00644656 0.0069469
0.00641391 0.00618224 0.00518306
0.00226065 0.00218461 0.00514611
0 0.00143586 0.00417514
0.00159463 0.00346614 0.00403704
0.00683737 0.00319372 0.00316155
0.00774552 0.00221273 0.00506395
0 0.00270918 0.00154168
0.00415844 0.00142842 2.73176e-07
0.00500797 0.00218769 0.00219807
0.00396266 0.00352664 0.00160319
0.0013454 -6.0808e-07 0.00406002
0.00418347 -7.88922e-06 0.00168834
0.00262642 0.00695163 1.84012e-07
0.00193837 0.00805273 0.00194492
0.00408787 0.00624801 0.00164518
0.00800308 0.00798558 0.00799717
0.00796487 0.00481524 0.0080222
0.0083885 0.00607918 0.00594786
0.00999947 0.00882484 0.00419181
0.00757721 0.00763531 0.00496363
0.00856741 0.00997948 0.00416642
0.00797702 0.00797071 0.00201596
0.00353609 0.00303649 0.00695952
0.00443742 0.00366182 0.008324
0.0038924 0.00160045 0.00596902
0.00500566 0.00766814 0.00767664
0.00198971 0.00800787 0.00798964
0.00282764 0.00999724 0.00712715
0.00391681 0.00839942 0.00595781
0 0.00695361 0.00262895
0.00164656 0.00623925 0.0040879
0 0.0040177 0.00850214
0.00231512 0.0049857 0.0076615
0.00143334 0.00417447 0.00999995
0.00717499 0.00711774 0.00999773
0.00611826 0.00597051 0.00841726
0.00205198 0.00794141 0.00474185
0.00304385 0.00694286 0.00646771
0.00158699 0.00607835 0.00592601
0.00998922 0.00578303 0.00831441
0 0.00718191 0.00711644
0.00158465 0.00577344 6.04129e-08
0 0.00577432 0.00158701
0.00999413 0.00715674 0.00711387
0.00286748 0.00334926 0.00999969
0.00997033 0.0014083 0.00417393
0.00803651 0.00194244 0.00197895
0.00838952 0.00350161 0.00399813
0.00372587 0.00164794 0.00412834
0.00150944 0.00999967 0.00581502
0.00280965 -3.63863e-06 0.0071277
0.00610983 0.00417122 0.00837574
0.00999325 0.00724879 0.00419412
0.00852865 -2.26554e-05 0.00416729
0.00334183 0.00286962 1.96297e-07
0.00270028 0.0015388 0.00999972
0.00281846 -4.01644e-06 0.00283205
0.00479799 0.00519396 0.00755415
0.00315828 0.00314624 0.00316737
0 0.00849157 0.00581511
0.00486493 0.00366939 0.00378619
0.0015371 0.00270865 4.73659e-08
0.00579989 0.00831572 0.00999824
0.0059851 0.00998904 0.00850477
0.00421429 0.00999395 0.00831724
0.00401798 0.00849821 0.0099989
0.00999872 0.00846616 0.00581285
0.00314758 0.00683351 0.00315089
0 0.00748929 0.00137438
0.00137346 0.00748898 2.63779e-08
0 0.00287343 0.00335182
0 0.00580816 0.00831736
0 0.00429792 0.00253898
0.00253367 0.00429589 1.93881e-07
0.00143394 0.00581917 0.00999996
0.00517556 0.00646845 0.00639998
0.00360346 0.00650932 0.00823377
0.00693249 0.0026127 0.00999804
0.0079996 0.00193932 0.00803386
0.00694211 -1.68598e-05 0.00308181
0.0060009 0.00165222 0.00361269
0.00997557 0.00284676 0.00335083
0 0.00140616 0.00256446
0.00637357 0.00821645 0.00642016
0.0057968 0.00142307 4.77628e-07
0.00602225 0.00354077 0.00160325
0.00315731 0.00999643 0.00582511
0.00856271 0.00997966 0.00583151
0.00255409 0.00140297 2.09508e-07
0.00595018 -1.34104e-05 0.0014946
0.00628059 0.00827648 0.00361686
0.00852407 -2.24759e-05 0.00583208
0.0061868 0.00166032 0.0063646
0.00140237 0.00256406 0.01
0.00711144 0.00716747 -1.1173e-07
0.00516538 0.00768213 0.00216881
0.00593655 0.00608363 0.00160182
0 0.00686719 0.00578184
0.00996955 0.00137839 0.00256379
0.00177233 0.00360988 0.00640785
0.00999748 0.00846117 0.00262245
0.00840361 0.00617013 0.0041318
0.00598324 0.00998837 0.00149358
0.00694212 -1.65766e-05 0.00692546
0.00997103 0.00140811 0.00581784
0.00837956 0.00355356 0.0060595
0.00150193 -7.74306e-07 0.00581519
0 0.0013659 0.00748679
0.00136377 -6.51201e-07 0.00752891
0.0099923 0.00684195 0.00577967
0.00581545 0.00848101 -2.05842e-08
0 0.0075208 0.00859127
0.00136521 0.00748643 0.00999989
0.00423118 0.00820021 0.00362815
0.00859624 0.00997953 0.00750994
0.0100001 0.00860496 0.00752355
0.00575532 0.00157543 0.00999847
0.00724574 0.00417325 0.00999787
0 0.0057735 0.00666667
0.00137039 0.00999961 0.00752892
0 0.00863025 0.00752641
0.00855465 -2.30832e-05 0.00250715
0.00999137 0.00692806 0.00262779
0.00845063 0.00632261 0.00216229
0.00850045 0.00580465 0.00999729
0.0074659 0.00135659 0.00999772
0.00855748 -2.26978e-05 0.00751008
0.00997143 0.00133857 0.00748426
0 0.00143551 0.00581971
0.00595243 -1.2953e-05 0.00850467
0.00419335 -7.93501e-06 0.00339999
0.00792026 0.00468992 0.0020341
0.00998081 0.00427188 0.00253807
0.00423183 0.00999372 0.00666606
0.00283673 0.00999729 0.00283191
0.00130705 -6.62611e-07 0.00241833
0 0.00727418 0.00419576
0.00998832 0.00574829 0.00666424
0.00697778 0.00998511 0.00308093
0.00750877 0.00862114 0.00999759
0 0.00574334 0.00336387
0 0.0043297 0.00416652
0.00686228 0.00577128 0.00999803
0.00997762 0.0029959 0.00691292
0.00420622 -7.7338e-06 0.0066664
0.00248059 0.00999765 0.00861134
0.00745962 0.00134751 3.1957e-07
0.00577063 0.00665748 0.00999829
0.00999614 0.00749573 0.00858813
0.00860584 0.00753406 0.00999717
0.00689511 0.00300718 3.93273e-07
0.003359 0.00574042 2.97158e-07
0.00752612 0.0086138 -3.13431e-07
0.00751948 0.00998287 0.00138676
0.00577705 0.00685744 5.60775e-08
0.00696824 0.00635727 0.00303291
0.00748263 -1.92289e-05 0.00138784
0.00288052 0.00499712 0.0099996
0.00432563 0.00582859 0.00999895
0.00432155 0.00416146 0.00999902
0.00752203 0.00998345 0.00861391
0.00246505 -3.07335e-06 0.00861153
0.00998676 0.00571782 0.00336265
0 0.00302218 0.00691532
0.00998216 0.00399208 0.00849921
0.00848288 0.00399712 4.43694e-08
0.00997425 0.00268215 0.00154121
0 0.00244495 0.00857025
0.0024461 0.00856817 0.00999949
0.00748534 -1.87317e-05 0.00861378
0.00846626 0.00260335 0.0099973
0.00883579 0.0041728 0.00999714
0.00567565 0.00998967 0.0058325
0.00518504 0.00757576 0.0050319
0.00564751 0.00998961 0.00421465
0.00697769 0.00998545 0.00692511
0.0030208 0.00691331 0.00999936
0.00415728 0.0043246 4.05896e-07
0.0028215 -4.15083e-06 0.00440475
0.00313776 -4.63575e-06 0.00582552
0.0099799 0.00416907 0.00112466
0.00363805 0.00833316 0.0015883
0.00998159 0.00430382 0.00416514
0.00665692 0.00576071 2.11201e-07
0.00859356 0.00997913 0.00250606
0 0.00848692 0.00262374
0.00135215 0.00999965 0.00405987
0 0.00885053 0.00419359
0.004195 0.00884427 1.38708e-07
0.00420878 0.00999352 0.00168765
0.00498995 0.00478438 0.00237887
0.00720433 0.00450638 2.54126e-07
0.00561637 -1.23091e-05 0.00421544
0.00564457 -1.22448e-05 0.00583294
0.00131365 0.00999966 0.00241806
0.0085448 0.00242328 1.43809e-07
0.00998362 0.00449621 0.00721701
0.00712043 0.00998482 0.00499911
0.00573017 0.00335408 0.00999851
0.0024457 -3.24984e-06 0.00135676
0.00997602 0.00241832 0.00856739
0.00239181 0.00478978 0.00499992
0.00581994 0.00431978 4.28746e-07
0.0083054 0.00578891 -1.62682e-07
0.00548484 0.00999043 0.00721949
0.00998225 0.00430441 0.00583131
0.00540742 0.00999022 0.0027752
0.0070844 -1.71662e-05 0.00499981
0.00283924 0.0099973 0.00440432
0 0.00452174 0.00721958
0.00452026 0.00721449 0.0099988
0.00545433 -1.14483e-05 0.00721946
0.00359804 0.00507046 0.00359651
0.00425646 0.00999366 0.00500782
0.00423017 -7.91123e-06 0.00500846
0.0036663 0.00521344 0.00617442
0 0.005744 0.00499998
0 0.00433013 0.00583333
0.00499265 0.0057371 3.73968e-07
0.00498037 0.0063323 0.00355363
0.00537682 -1.16348e-05 0.00277611
0.00998747 0.00571867 0.00499816
0.00368793 0.00640437 0.00484379
0.005736 0.00499116 0.00999845
0.00998625 0.00574859 0.00158626
0 0.00666667 0
0.00858566 0.00750065 -4.71165e-07
0.0033164 -6.14614e-06 8.64181e-07
0 0.01 0.00666667
0.00500649 0.00999152 0.00999881
0 0.00288419 0.00499914
0.00999306 0.00746361 0.00137353
0.00998935 0.0066409 -7.01556e-07
0 0.005 0.01
0.00498334 0.00287571 3.79742e-07
0 0.005 0
0.00996434 -2.85398e-05 0.00333256
0.0100052 0.00997391 0.00666397
0.00419323 0.00726897 2.13989e-07
0.00997621 0.00285774 0.00499753
0.00497601 -1.09794e-05 8.99132e-07
0 0 0.00666667
0.00379048 0.00361266 0.00522622
0.00497876 -1.0449e-05 0.00999841
0.00996572 -2.8267e-05 0.00666447
0 0 0.005
0.00878422 0.0099782 0.00121924
0.00999816 0.00875384 0.00121909
0.00996499 -2.83555e-05 0.00499853
0.00998275 0.0049738 -4.66026e-07
0.00121559 0.00121925 -8.86991e-10
0 0.00122008 0.00122008
0 0.00333333 0.01
0 0.00666667 0.01
0.00877908 0.00875853 -6.8328e-07
0.0100038 0.00997356 0.00333163
0.00421945 0.00999361 0.00339938
0.00999332 0.00664171 0.00999669
0 0.00333333 0
0 0.00122008 0.00877992
0.00121499 -8.27491e-07 0.00877969
0.00121619 0.00121952 0.0100001
0.00878711 0.00997876 0.00877733
0.00122004 0.00877945 0.00999988
0 0.00877992 0.00877992
0.0100013 0.00875455 0.00877675
0.0066716 0.00998574 -5.12217e-07
0.00996825 0.00119198 0.00121984
0.00122102 0.00999945 0.00878009
0.00878301 0.00875929 0.00999714
0.00998669 0.00497471 0.00999672
0 0 0.00333333
0.00663663 -1.63224e-05 8.59001e-07
0.00874513 -2.40624e-05 0.00122041
0.001206 -8.65099e-07 0.00121209
0 0.00877992 0.00122008
0.00121995 0.0087794 1.03759e-07
0.0012123 0.0099995 0.00121142
0.00997133 0.00119258 0.00877686
0.00875336 0.00119724 0.00999708
0.0066402 -1.58067e-05 0.00999759
0.00874938 0.00119662 2.28113e-07
0.00874821 -2.35396e-05 0.00877712
0.00997623 0.00330652 -2.77724e-07
0.00333814 0.0099955 0.0099996
0.00246177 0.00999784 0.00135634
0.0066747 0.00998643 0.00999821
0.0099801 0.00330743 0.00999671
0 0.01 0.005
0.002624 0.00848461 1.88846e-07
0.0100044 0.00997375 0.00499787
0 0.01 0.00333333
0 0.00166667 0
0.00996369 -2.8794e-05 0.00166648
0 0.00166667 0.01
0 0.00833333 0
0.00999604 0.00830726 -9.30506e-07
0.00996643 -2.83301e-05 0.00833029
0.0100032 0.00997335 0.00166544
0.0100059 0.00997395 0.00833028
0.00166899 0.0099985 0.0099999
0 0.01 0.00833333
0.00833766 0.0099797 -7.60991e-07
0.00829913 -2.26573e-05 5.19861e-07
0.00830306 -2.21067e-05 0.00999701
0.00834124 0.00998027 0.00999742
0 0 0.00833333
0.01 0.0083081 0.00999664
0.00165791 -2.14144e-06 2.71609e-07
0 0 0.00166667
0.00333743 0.00999567 6.98297e-08
0.00997357 0.00163933 0.00999665
0.00996962 0.00163868 -1.40686e-07
0.00165909 -1.75335e-06 0.00999999
0.00166857 0.00999879 7.42562e-08
0 0.01 0.00166667
0.0100066 0.00997397 0.00999672
0 0 0.01
0.0100026 0.00997318 -1.21145e-06
0.00996707 -2.84368e-05 0.00999636
0 0.01 0.01
0.00996307 -2.90078e-05 1.18366e-07
0 0.01 0
0 0 0
0.00500474 0.00999103 -1.61968e-07
0.00331842 -5.52801e-06 0.00999908
0 0.00833333 0.01

CELLS 343 686
1 0
1 1
1 2
1 3
1 4
1 5
1 6
1 7
1 8
1 9
1 10
1 11
1 12
1 13
1 14
1 15
1 16
1 17
1 18
1 19
1 20
1 21
1 22
1 23
1 24
1 25
1 26
1 27
1 28
1 29
1 30
1 31
1 32
1 33
1 34
1 35
1 36
1 37
1 38
1 39
1 40
1 41
1 42
1 43
1 44
1 45
1 46
1 47
1 48
1 49
1 50
1 51
1 52
1 53
1 54
1 55
1 56
1 57
1 58
1 59
1 60
1 61
1 62
1 63
1 64
1 65
1 66
1 67
1 68
1 69
1 70
1 71
1 72
1 73
1 74
1 75
1 76
1 77
1 78
1 79
1 80
1 81
1 82
1 83
1 84
1 85
1 86
1 87
1 88
1 89
1 90
1 91
1 92
1 93
1 94
1 95
1 96
1 97
1 98
1 99
1 100
1 101
1 102
1 103
1 104
1 105
1 106
1 107
1 108
1 109
1 110
1 111
1 112
1 113
1 114
1 115
1 116
1 117
1 118
1 119
1 120
1 121
1 122
1 123
1 124
1 125
1 126
1 127
1 128
1 129
1 130
1 131
1 132
1 133
1 134
1 135
1 136
1 137
1 138
1 139
1 140
1 141
1 142
1 143
1 144
1 145
1 146
1 147
1 148
1 149
1 150
1 151
1 152
1 153
1 154
1 155
1 156
1 157
1 158
1 159
1 160
1 161
1 162
1 163
1 164
1 165
1 166
1 167
1 168
1 169
1 170
1 171
1 172
1 173
1 174
1 175
1 176
1 177
1 178
1 179
1 180
1 181
1 182
1 183
1 184
1 185
1 186
1 187
1 188
1 189
1 190
1 191
1 192
1 193
1 194
1 195
1 196
1 197
1 198
1 199
1 200
1 201
1 202
1 203
1 204
1 205
1 206
1 207
1 208
1 209
1 210
1 211
1 212
1 213
1 214
1 215
1 216
1 217
1 218
1 219
1 220
1 221
1 222
1 223
1 224
1 225
1 226
1 227
1 228
1 229
1 230
1 231
1 232
1 233
1 234
1 235
1 236
1 237
1 238
1 239
1 240
1 241
1 242
1 243
1 244
1 245
1 246
1 247
1 248
1 249
1 250
1 251
1 252
1 253
1 254
1 255
1 256
1 257
1 258
1 259
1 260
1 261
1 262
1 263
1 264
1 265
1 266
1 267
1 268
1 269
1 270
1 271
1 272
1 273
1 274
1 275
1 276
1 277
1 278
1 279
1 280
1 281
1 282
1 283
1 284
1 285
1 286
1 287
1 288
1 289
1 290
1 291
1 292
1 293
1 294
1 295
1 296
1 297
1 298
1 299
1 300
1 301
1 302
1 303
1 304
1 305
1 306
1 307
1 308
1 309
1 310
1 311
1 312
1 313
1 314
1 315
1 316
1 317
1 318
1 319
1 320
1 321
1 322
1 323
1 324
1 325
1 326
1 327
1 328
1 329
1 330
1 331
1 332
1 333
1 334
1 335
1 336
1 337
1 338
1 339
1 340
1 341
1 342

CELL_TYPES 343
1
1
1
1
1
1
1
1
1
1
1
1
1
1
1
1
1
1
1
1
1
1
1
1
1
1
1
1
1
1
1
1
1
1
1
1
1
1
1
1
1
1
1
1
1
1
1
1
1
1
1
1
1
1
1
1
1
1
1
1
1
1
1
1
1
1
1
1
1
1
1
1
1
1
1
1
1
1
1
1
1
1
1
1
1
1
1
1
1
1
1
1
1
1
1
1
1
1
1
1
1
1
1
1
1
1
1
1
1
1
1
1
1
1
1
1
1
1
1
1
1
1
1
1
1
1
1
1
1
1
1
1
1
1
1
1
1
1
1
1
1
1
1
1
1
1
1
1
1
1
1
1
1
1
1
1
1
1
1
1
1
1
1
1
1
1
1
1
1
1
1
1
1
1
1
1
1
1
1
1
1
1
1
1
1
1
1
1
1
1
1
1
1
1
1
1
1
1
1
1
1
1
1
1
1
1
1
1
1
1
1
1
1
1
1
1
1
1
1
1
1
1
1
1
1
1
1
1
1
1
1
1
1
1
1
1
1
1
1
1
1
1
1
1
1
1
1
1
1
1
1
1
1
1
1
1
1
1
1
1
1
1
1
1
1
1
1
1
1
1
1
1
1
1
1
1
1
1
1
1
1
1
1
1
1
1
1
1
1
1
1
1
1
1
1
1
1
1
1
1
1
1
1
1
1
1
1
1
1
1
1
1
1
1
1
1
1
1
1
1
1
1
1
1
1
1
1
1
1
1
1
1
1
1
1
1
1
1
1
1
1
1
1

POINT_DATA 343
FIELD FieldData 8

NodeID_(#) 1 343 int
0
1
2
3
4
5
6
7
8
9
10
11
12
13
14
15
16
17
18
19
20
21
22
23
24
25
26
27
28
29
30
31
32
33
34
35
36
37
38
39
40
41
42
43
44
45
46
47
48
49
50
51
52
53
54
55
56
57
58
59
60
61
62
63
64
65
66
67
68
69
70
71
72
73
74
75
76
77
78
79
80
81
82
83
84
85
86
87
88
89
90
91
92
93
94
95
96
97
98
99
100
101
102
103
104
105
106
107
108
109
110
111
112
113
114
115
116
117
118
119
120
121
122
123
124
125
126
127
128
129
130
131
132
133
134
135
136
137
138
139
140
141
142
143
144
145
146
147
148
149
150
151
152
153
154
155
156
157
158
159
160
161
162
163
164
165
166
167
168
169
170
171
172
173
174
175
176
177
178
179
180
181
182
183
184
185
186
187
188
189
190
191
192
193
194
195
196
197
198
199
200
201
202
203
204
205
206
207
208
209
210
211
212
213
214
215
216
217
218
219
220
221
222
223
224
225
226
227
228
229
230
231
232
233
234
235
236
237
238
239
240
241
242
243
244
245
246
247
248
249
250
251
252
253
254
255
256
257
258
259
260
261
262
263
264
265
266
267
268
269
270
271
272
273
274
275
276
277
278
279
280
281
282
283
284
285
286
287
288
289
290
291
292
293
294
295
296
297
298
299
300
301
302
303
304
305
306
307
308
309
310
311
312
313
314
315
316
317
318
319
320
321
322
323
324
325
326
327
328
329
330
331
332
333
334
335
336
337
338
339
340
341
342

Component_(#) 1 343 int
0
0
0
0
0
0
0
0
0
0
0
0
0
0
0
0
0
0
0
0
0
0
0
0
0
0
0
0
0
0
0
0
0
0
0
0
0
0
0
0
0
0
0
0
0
0
0
0
0
0
0
0
0
0
0
0
0
0
0
0
0
0
0
0
0
0
0
0
0
0
0
0
0
0
0
0
0
0
0
0
0
0
0
0
0
0
0
0
0
0
0
0
0
0
0
0
0
0
0
0
0
0
0
0
0
0
0
0
0
0
0
0
0
0
0
0
0
0
0
0
0
0
0
0
0
0
0
0
0
0
0
0
0
0
0
0
0
0
0
0
0
0
0
0
0
0
0
0
0
0
0
0
0
0
0
0
0
0
0
0
0
0
0
0
0
0
0
0
0
0
0
0
0
0
0
0
0
0
0
0
0
0
0
0
0
0
0
0
0
0
0
0
0
0
0
0
0
0
0
0
0
0
0
0
0
0
0
0
0
0
0
0
0
0
0
0
0
0
0
0
0
0
0
0
0
0
0
0
0
0
0
0
0
0
0
0
0
0
0
0
0
0
0
0
0
0
0
0
0
0
0
0
0
0
0
0
0
0
0
0
0
0
0
0
0
0
0
0
0
0
0
0
0
0
0
0
0
0
0
0
0
0
0
0
0
0
0
0
0
0
0
0
0
0
0
0
0
0
0
0
0
0
0
0
0
0
0
0
0
0
0
0
0
0
0
0
0
0
0
0
0
0
0
0
0
0
0
0
0
0
0
0
0
0
0
0
0
0
0
0
0
0
0

NodalMass_(kg) 1 343 double
3.15563e-06
1.41304e-05
2.20912e-06
1.71484e-05
8.42e-06
9.09306e-06
9.93033e-06
7.52198e-06
6.81096e-06
5.58223e-06
3.10888e-06
1.07575e-05
4.87011e-06
1.64955e-05
3.0246e-06
8.05984e-06
6.703e-06
1.0877e-05
4.18978e-06
8.16106e-06
6.14143e-06
1.17902e-05
2.23114e-06
4.25176e-06
1.09915e-05
7.41467e-06
4.21871e-06
3.92484e-06
3.08766e-06
1.31268e-05
7.72627e-06
1.65404e-05
1.19037e-05
7.29666e-06
3.81683e-06
1.11001e-05
3.81317e-06
1.39137e-05
6.37414e-06
8.00975e-06
7.6712e-06
1.18847e-05
1.6399e-05
2.78633e-06
8.93599e-06
2.58087e-06
7.57362e-06
4.23241e-06
1.31286e-05
3.80168e-06
2.7746e-06
7.16776e-06
1.21307e-05
5.11765e-06
8.19728e-06
4.58094e-06
2.79503e-06
3.26126e-06
4.12443e-06
2.11915e-06
3.35177e-06
3.61669e-06
1.56838e-05
7.33679e-06
8.24695e-06
5.00369e-06
2.82625e-06
7.20276e-06
3.26815e-06
4.18751e-06
2.02785e-06
2.42152e-06
3.11835e-06
5.97459e-06
5.87101e-06
4.09374e-06
5.45463e-06
2.28825e-06
4.49759e-06
4.38192e-06
4.50892e-06
4.39234e-06
4.27273e-06
5.32031e-06
1.53201e-06
2.38869e-06
2.02885e-06
4.38798e-06
3.17972e-06
3.14298e-06
4.61567e-06
5.87645e-06
8.18088e-06
2.48341e-06
1.53815e-05
3.49683e-06
7.35227e-06
2.01314e-06
2.0408e-06
7.98183e-06
4.41293e-06
7.1389e-06
1.20123e-06
5.03343e-06
1.61257e-06
4.12601e-06
8.73748e-06
4.37849e-06
7.97173e-06
2.13557e-06
3.38137e-06
9.48623e-06
7.40262e-06
1.80226e-06
2.10222e-06
7.98889e-06
1.87983e-06
7.44814e-06
4.19782e-06
2.37156e-06
4.31705e-06
6.06441e-06
4.30905e-06
2.16843e-06
1.8986e-06
1.81294e-06
3.89762e-06
2.44299e-06
1.65628e-06
8.01374e-06
1.64513e-06
2.3931e-06
3.01363e-06
2.99431e-06
1.36541e-06
1.87293e-06
2.09622e-06
1.94762e-06
1.87618e-06
6.37913e-06
4.58628e-06
2.02767e-06
1.61999e-06
2.41284e-06
3.8865e-06
4.44973e-06
2.29839e-06
1.17349e-05
3.11811e-06
1.354e-06
3.45063e-06
1.81846e-06
2.9382e-06
1.37381e-06
2.41464e-06
2.10451e-06
2.63927e-06
2.14166e-06
1.7943e-06
3.19976e-06
1.36989e-06
2.43489e-06
2.08158e-06
1.3601e-06
2.17203e-06
1.89924e-06
3.16996e-06
2.6119e-06
2.37677e-06
1.60225e-06
1.90684e-06
5.49206e-06
1.87878e-06
3.14313e-06
2.97301e-06
1.18454e-06
1.89263e-06
2.04166e-06
2.73572e-06
2.42405e-06
3.23083e-06
3.19752e-06
3.2142e-06
1.94492e-06
1.61196e-06
1.86876e-06
3.22435e-06
2.1114e-06
2.96917e-06
6.15288e-06
2.3097e-06
2.39729e-06
2.38029e-06
2.64508e-06
1.66557e-06
1.82377e-06
2.06583e-06
5.73271e-06
2.08467e-06
2.18324e-06
2.43522e-06
3.1188e-06
3.17316e-06
2.05447e-06
1.9592e-06
3.05718e-06
6.44327e-06
2.08796e-06
2.72615e-06
2.15709e-06
1.86812e-06
2.0028e-06
2.10999e-06
2.88994e-06
2.3222e-06
2.3979e-06
1.97629e-06
6.4127e-06
2.16225e-06
3.29198e-06
2.10223e-06
2.66566e-06
1.94415e-06
2.91865e-06
2.58116e-06
2.11703e-06
2.09534e-06
1.91719e-06
7.06046e-06
2.25203e-06
2.06378e-06
6.28159e-06
2.12147e-06
2.90924e-06
2.12921e-06
6.4487e-06
1.41701e-06
2.0682e-06
6.58062e-06
2.52584e-06
2.39732e-06
7.42191e-07
2.22368e-06
7.06751e-07
7.00657e-07
8.93749e-07
2.53536e-06
2.26535e-06
1.33607e-06
7.84725e-07
2.32303e-06
6.06694e-07
6.68276e-07
6.84307e-07
2.51242e-06
2.31629e-06
7.8367e-07
6.80839e-07
6.22692e-06
6.7471e-07
6.65305e-07
7.01158e-07
1.8232e-06
1.90695e-06
6.86722e-07
7.04792e-07
1.86445e-06
2.28572e-06
6.8045e-07
7.16005e-07
1.82373e-06
6.01079e-07
2.02791e-06
7.4579e-07
5.74423e-07
1.80052e-06
1.454e-06
2.2702e-06
1.80636e-06
2.15356e-06
1.79089e-06
1.79456e-06
6.8231e-07
2.24737e-06
1.45239e-06
1.79556e-06
6.97875e-07
6.24265e-07
6.62717e-07
1.44627e-06
1.40138e-06
2.15258e-06
1.82851e-06
1.3994e-06
1.43932e-06
2.19226e-06
6.97732e-07
1.77726e-06
1.79162e-06
6.54258e-07
7.3397e-07
2.34895e-06
7.10392e-07
6.56982e-07
6.26314e-07
2.18926e-06
6.12493e-07
6.03901e-07
5.92831e-07
5.12031e-07
5.11667e-07
4.9467e-07
4.97016e-07
4.96269e-07
5.33079e-07
4.94191e-07
4.97855e-07
4.86862e-07
4.90626e-07
4.94649e-07
4.94954e-07
4.91922e-07
4.89615e-07
4.96354e-07
4.95189e-07
4.82188e-07
1.10854e-06
5.3299e-07
5.44763e-07
5.36655e-07
5.15417e-07
5.01772e-07
5.53774e-07
5.53774e-07
5.53774e-07
5.53774e-07
5.53774e-07
5.53774e-07
5.50785e-07
5.50785e-07
7.45291e-07
7.11668e-07
4.9897e-07

NodalForce_(N) 3 343 double
9.56871e-08 -1.63792e-08 1.83916e-09
8.10538e-07 -2.57036e-07 1.69283e-07
0.000337359 0.000381009 0.00042445
-1.33623e-08 -2.82052e-07 1.63927e-07
-1.04499e-06 -1.27861e-06 7.61963e-07
-8.79837e-07 -1.22493e-06 8.59915e-07
1.72134e-07 -2.91107e-06 2.01597e-06
6.09364e-07 -1.4697e-06 1.01481e-06
-1.18027e-06 -1.69779e-06 1.15032e-06
1.39853e-07 -6.68335e-07 4.66897e-07
-9.27109e-07 -3.67653e-07 2.29198e-07
-2.73679e-06 -1.78121e-06 1.14742e-06
-1.48655e-06 -6.02299e-07 3.38472e-07
-1.23494e-06 -2.46615e-07 2.17495e-07
-7.23935e-07 -3.19646e-07 2.3763e-07
3.42413e-07 -1.89276e-06 1.38806e-06
6.92142e-07 -1.35036e-06 9.52766e-07
-4.5945e-07 -2.40123e-07 1.67534e-07
-0.00125903 0.000673785 -0.000144979
3.40414e-09 -5.3776e-08 2.98246e-08
-3.49412e-08 -1.55393e-06 1.00826e-06
-2.02109e-06 -3.8659e-06 2.49119e-06
-0.000517737 -0.00159433 -0.000814219
6.52976e-08 -5.12371e-07 2.62246e-07
-3.08922e-07 -1.6917e-06 1.13022e-06
4.94331e-07 -6.01435e-07 4.90269e-07
-1.9584e-07 -1.88716e-08 2.8409e-08
-4.18539e-07 -4.67408e-07 2.94241e-07
5.16689e-07 -8.58085e-08 6.74432e-08
1.30028e-06 -1.26966e-07 1.43303e-07
1.37143e-06 -5.2576e-07 5.23218e-07
1.82577e-06 -5.18394e-06 3.76996e-06
-1.55707e-06 -3.76442e-06 2.6992e-06
5.24521e-07 -2.5238e-06 1.7689e-06
1.42906e-06 -1.79117e-06 1.22108e-06
2.61496e-06 -3.15508e-06 2.18783e-06
1.75199e-06 -1.37177e-06 9.32659e-07
5.73358e-06 -4.39124e-06 3.05894e-06
-5.87219e-07 -4.01662e-07 2.71189e-07
-1.16765e-06 -7.70361e-07 6.47072e-07
-1.17275e-06 -7.22838e-07 3.736e-07
8.56612e-07 -1.48796e-06 1.14304e-06
3.55223e-07 -2.57829e-07 1.40241e-07
3.58676e-07 -1.08071e-07 5.43295e-08
1.25083e-06 -7.00457e-07 4.24636e-07
0.000908091 0.000724228 -0.000375609
2.72281e-07 -9.14674e-08 5.47051e-08
-0.000169041 0.000995324 4.02695e-05
-1.92668e-07 -2.45964e-07 1.99535e-07
-1.30732e-07 -3.28935e-08 9.32106e-09
-1.19332e-07 -7.00698e-07 5.22101e-07
-3.63312e-07 -1.29878e-06 1.03225e-06
7.4708e-07 -1.32722e-07 1.24185e-07
2.27005e-07 -1.72771e-07 1.3403e-07
9.40858e-08 -7.43803e-08 5.87573e-08
-3.2518e-07 -2.15771e-06 1.50542e-06
0.000754739 0.000581616 0.000667246
2.34149e-07 -3.75979e-08 1.27573e-08
-0.000114892 -1.97692e-05 -0.000334532
2.0316e-07 -9.9043e-07 6.95795e-07
-4.48185e-07 -1.39523e-07 1.17418e-07
-7.17448e-07 -1.82552e-06 1.17416e-06
-6.48946e-07 -5.54268e-06 3.53822e-06
-1.82304e-07 -2.6544e-06 1.7755e-06
-8.46507e-07 -7.28269e-07 3.72296e-07
3.2488e-07 -8.25403e-09 1.91238e-08
-5.266e-07 -1.5586e-07 7.51826e-08
-1.20153e-06 -1.35495e-06 1.03449e-06
8.31915e-07 -1.5283e-06 1.05002e-06
-1.26381e-06 -1.67351e-06 1.05795e-06
1.70049e-07 -1.1716e-07 7.62186e-08
-4.48749e-07 -1.10806e-07 7.94292e-08
-3.61703e-07 -1.7761e-07 7.76084e-08
-3.59647e-07 -6.28288e-07 5.30744e-07
-1.19301e-08 -2.6998e-07 1.82862e-07
0.00136813 0.000554214 0.000331119
-1.49718e-08 -6.60666e-07 4.5625e-07
6.40411e-08 -1.31784e-08 6.56452e-09
9.84464e-08 -7.87815e-07 5.78238e-07
8.32467e-07 -8.10941e-07 6.29592e-07
5.99466e-07 -4.29403e-07 3.28401e-07
7.04198e-08 -4.05294e-07 2.66795e-07
1.12156e-06 -1.9974e-06 1.38359e-06
5.61116e-07 -1.98984e-07 1.69883e-07
3.07762e-05 -0.00106721 0.000368764
1.89425e-07 -1.23615e-09 2.41793e-10
0.00010097 -0.000665404 0.000410759
-0.000704787 -0.000320579 6.91318e-05
-0.000275364 0.000250114 -0.000161815
3.38728e-07 -9.15435e-08 6.44368e-08
-1.10938e-07 -2.70935e-08 1.21568e-08
3.30625e-07 -7.41559e-07 5.51321e-07
-1.38232e-07 -3.9253e-07 4.08704e-07
-8.82038e-07 -6.57455e-07 4.49672e-07
-5.31514e-06 -5.35774e-06 3.49927e-06
-7.70992e-07 -9.97589e-07 6.1058e-07
-9.00029e-07 -1.57378e-06 9.64758e-07
-9.20909e-08 -9.89938e-07 6.51971e-07
-6.12331e-05 9.91131e-05 -7.8276e-06
1.39434e-06 -1.64533e-06 1.12139e-06
2.36566e-08 -9.2561e-07 5.44333e-07
5.32507e-07 -1.41534e-06 9.93828e-07
1.97304e-07 -6.74998e-08 4.06218e-08
1.8738e-06 -1.806e-06 1.24732e-06
2.77075e-08 -7.92613e-08 3.75787e-08
-5.91584e-07 -9.08567e-07 5.86979e-07
2.66571e-06 -1.76898e-06 1.20794e-06
-1.68661e-06 -1.74131e-06 1.10293e-06
-1.96035e-06 -1.77514e-06 1.08455e-06
-1.17278e-07 -6.88325e-09 6.54128e-09
1.42316e-06 -8.5877e-07 6.06494e-07
2.7685e-06 -1.29057e-06 9.43416e-07
1.83174e-06 -1.2622e-06 9.86258e-07
-0.000700927 -0.000350278 -0.00075966
-2.52267e-07 -1.06441e-06 6.79255e-07
-1.84901e-07 -8.77341e-08 7.98177e-08
8.02681e-07 -8.84827e-07 6.03545e-07
1.28363e-06 -2.60622e-06 1.78984e-06
2.07241e-06 -8.13306e-07 5.59363e-07
-9.57372e-07 -6.81149e-07 4.04039e-07
-1.22221e-06 -2.17197e-06 1.40992e-06
-7.85062e-07 -2.18237e-06 1.48485e-06
-2.6497e-07 -3.66621e-08 2.43575e-08
0.000234188 0.000187007 0.000113682
-1.24905e-07 -1.78904e-08 3.7484e-09
2.5589e-07 -8.4676e-07 5.87065e-07
1.78502e-06 -6.86916e-07 4.90271e-07
-0.000101844 -0.000730373 -0.000410391
-1.5195e-08 -1.18524e-08 6.5594e-09
1.71257e-06 -7.36202e-07 4.41659e-07
4.70478e-07 -5.96277e-07 4.2037e-07
4.43038e-07 -1.11187e-06 7.83564e-07
-1.15911e-06 -6.0317e-07 3.96182e-07
-7.70363e-07 -7.96354e-07 5.82218e-07
0.000526962 -0.00111962 -0.000119041
8.00561e-08 -3.17043e-09 6.96711e-09
6.33805e-05 4.07934e-05 -0.000235939
-4.27311e-07 -7.90015e-07 4.96145e-07
5.80114e-07 -8.79369e-07 6.02126e-07
1.81833e-06 -2.26267e-06 1.54669e-06
-6.89523e-07 -1.61844e-06 1.15182e-06
-9.23524e-07 -6.4499e-07 4.16954e-07
-7.64458e-07 -6.55835e-07 4.06092e-07
-9.04625e-07 -1.21609e-06 7.91554e-07
-0.00102589 0.000281007 9.62578e-05
-1.9245e-06 -9.85701e-07 5.98914e-07
-3.98798e-07 -2.8565e-07 1.47213e-07
1.90059e-06 -3.77785e-06 2.55394e-06
3.29154e-07 -1.50818e-06 9.95961e-07
2.71564e-07 -1.35217e-07 8.06192e-08
7.3674e-07 -1.39182e-07 8.37226e-08
-5.37197e-08 -8.19805e-09 7.23753e-09
-0.0002538 -0.00069973 -8.43362e-05
1.25962e-08 -6.49088e-07 4.47337e-07
1.12338e-06 -6.15482e-07 4.077e-07
1.21994e-07 -6.03577e-07 4.31453e-07
0.000507829 -0.000818933 0.000256547
-0.00145465 0.000121283 0.000491113
-2.4892e-07 -4.14304e-07 3.20995e-07
-7.01083e-07 -1.56084e-06 1.04835e-06
-3.68217e-07 -1.72301e-07 8.23597e-08
1.95478e-07 -7.7965e-08 5.48922e-08
6.39518e-09 -6.69043e-07 4.08058e-07
-1.01011e-07 -2.19306e-07 1.78638e-07
1.02237e-07 -1.01168e-06 7.07924e-07
-3.74092e-08 -6.81187e-07 4.85912e-07
3.61773e-07 -8.30712e-07 5.48263e-07
4.74372e-07 -1.12271e-07 1.09946e-07
1.27061e-06 -6.81304e-07 4.76021e-07
8.99673e-07 -4.71058e-07 3.22248e-07
6.73411e-07 -3.18381e-07 2.38612e-07
1.24533e-06 -1.32437e-06 9.41978e-07
-2.87793e-07 -6.17959e-07 3.85963e-07
-2.73695e-07 -1.11205e-07 1.14475e-07
-3.33242e-07 -2.39479e-07 2.36506e-07
-2.07004e-07 -1.05279e-07 9.72563e-08
4.04407e-07 -5.46322e-07 3.98158e-07
-3.78671e-07 -1.03712e-07 4.36355e-08
4.86557e-07 -1.30442e-06 8.78018e-07
0.000279213 -0.000720555 -0.000601289
-7.1882e-07 -1.54544e-06 1.0613e-06
6.63679e-07 -1.19264e-06 7.7627e-07
1.01867e-07 -1.59674e-06 1.02217e-06
0.000292027 -0.000800029 0.00039563
3.82623e-09 -5.91645e-08 4.00872e-08
-9.2448e-07 -6.19255e-07 3.77515e-07
-1.28321e-06 -1.20542e-06 8.05969e-07
-5.9426e-07 -8.19883e-07 5.64906e-07
8.32519e-07 -5.14879e-07 3.24009e-07
1.02355e-06 -8.30108e-07 5.51851e-07
8.11561e-07 -4.01964e-07 2.4829e-07
6.74462e-07 -6.01488e-07 4.05864e-07
-1.02419e-07 -6.68488e-08 9.12348e-08
4.20202e-07 -2.18361e-07 1.86384e-07
-2.24312e-07 -1.03702e-07 4.7747e-08
-3.33165e-07 -1.28268e-07 6.22004e-08
3.44652e-07 -1.00526e-06 6.54148e-07
1.37284e-06 -4.07088e-07 3.18197e-07
5.469e-08 -1.00298e-06 6.78251e-07
6.71306e-07 -4.91091e-07 3.52064e-07
1.32586e-06 -8.8691e-07 6.03442e-07
0.000290901 -0.000401504 0.000213165
1.99925e-07 -1.23412e-08 1.06158e-08
-1.49604e-05 0.000466629 0.000126074
7.02496e-07 -1.94904e-07 1.41272e-07
1.10487e-06 -3.20268e-07 2.09803e-07
7.1773e-07 -7.52726e-07 5.99923e-07
4.74103e-07 -5.70199e-07 3.87303e-07
-6.38063e-07 -5.55574e-07 3.11103e-07
-6.58138e-07 -4.41436e-07 2.3816e-07
1.46938e-07 -7.27157e-09 1.41984e-09
1.756e-07 -7.78288e-07 4.90921e-07
-2.48267e-07 -1.00682e-06 6.91354e-07
1.09947e-06 -7.55073e-07 5.04238e-07
-6.28488e-07 -4.04725e-07 3.04689e-07
-1.6542e-07 -1.01513e-07 5.40089e-08
-6.88246e-07 -9.79386e-07 6.51478e-07
9.0753e-08 -1.49282e-07 1.23523e-07
3.99443e-07 -3.86424e-07 2.86569e-07
1.13505e-06 -1.13969e-06 7.7328e-07
4.7062e-07 -3.35853e-07 2.33441e-07
-1.63655e-07 -1.27871e-06 8.71384e-07
7.83102e-07 -3.14949e-07 1.9521e-07
-9.16453e-07 -8.578e-07 5.24372e-07
4.71392e-07 -1.02147e-07 5.51133e-08
-0.00073652 -0.000157372 0.000222111
-8.709e-08 -1.99938e-07 1.71829e-07
-6.73023e-07 -3.67519e-07 2.00774e-07
3.98663e-07 -3.94279e-07 2.84552e-07
5.84604e-07 -2.30554e-07 1.3032e-07
-4.63039e-07 -2.62257e-07 1.26387e-07
1.13102e-08 -3.51156e-07 2.72348e-07
0.000733081 -0.000802569 -6.7396e-07
-0.000219968 -5.34239e-05 0.000206605
5.37534e-07 -2.39699e-07 2.14515e-07
9.86113e-07 -7.49344e-07 5.53104e-07
-2.49734e-07 -2.6829e-07 1.58705e-07
1.93284e-07 -9.82443e-07 6.71608e-07
4.95376e-07 -3.61912e-07 2.59822e-07
-4.34292e-07 -3.96068e-07 3.34124e-07
6.4364e-07 -1.14685e-06 7.5959e-07
0.000366118 -7.81393e-06 0.000279129
1.0647e-06 -8.06566e-07 5.48345e-07
-2.97906e-08 -6.69283e-08 3.68866e-08
0.000585785 -0.00051834 -6.40288e-06
8.01297e-08 -1.24721e-07 9.20024e-08
0.000999611 -0.000256833 -0.000219414
9.34101e-07 -1.06065e-06 7.1799e-07
5.54211e-07 -6.3373e-07 4.21238e-07
8.43573e-05 -0.000336008 4.03774e-05
2.0566e-07 -3.27297e-07 2.21094e-07
-0.000260594 -0.000295975 -0.000253405
-1.78259e-07 -3.4247e-07 2.17362e-07
2.25958e-07 -3.18245e-07 2.22098e-07
7.18331e-07 -2.07104e-07 1.80086e-07
-3.04628e-07 -1.13243e-06 7.56933e-07
-4.8775e-08 -1.37446e-07 7.95232e-08
-0.000713805 -0.000757985 -9.5108e-05
-2.36925e-07 -4.19324e-07 2.7588e-07
-2.80486e-07 -1.1585e-07 6.7325e-08
-2.90366e-07 -3.38972e-07 2.16489e-07
-0.00060311 -0.000560636 -2.78715e-05
1.11019e-06 -6.90551e-07 4.70796e-07
9.90434e-07 -8.98009e-07 6.0506e-07
-2.41438e-07 -3.49806e-07 2.24286e-07
1.99431e-07 -3.39778e-07 2.22028e-07
1.06244e-08 -2.35137e-08 1.44842e-09
0.000173219 0.000699504 -0.00029742
-0.000125715 0.00011531 0.000100053
3.26645e-05 -0.000243997 6.4737e-05
1.04724e-06 -6.877e-07 4.65434e-07
3.02492e-07 -2.80803e-07 1.91998e-07
6.2657e-07 -2.1059e-07 1.10911e-07
-6.84957e-08 -3.4716e-07 2.4489e-07
1.31299e-05 -0.000181193 9.27973e-05
9.19953e-05 0.000562413 0.000161319
-9.6915e-08 -1.85245e-08 3.42605e-09
-1.26418e-07 -1.71657e-08 9.29704e-09
4.02434e-07 -6.8315e-07 4.91795e-07
9.26475e-09 -1.82936e-08 5.67253e-09
1.09022e-05 0.000449261 -0.000159507
2.41084e-07 -8.38171e-07 5.88819e-07