# vtk DataFile Version 4.2
vtk output
ASCII
DATASET UNSTRUCTURED_GRID

POINTS 343 double
0.00126172 0.00420075 -5.04002e-06
0.00243836 0.00499447 0.00216514
0 0.00419538 0.00112517
0.00217329 0.00196513 0.00193302
0.00582809 0.00244791 0.00500712
0.00582234 0.00386845 0.00637173
0.00857874 0.00484266 0.0049616
0.00700115 0.00490045 0.00366262
0.00770315 0.00334761 0.00687877
0.00561048 0.00502828 0.00497583
0.00471973 0.00115037 0.00997809
0.00595675 0.00212291 0.00787734
0.00473664 2.58045e-05 0.00829674
0.00226674 0.00201322 0.00802362
0.00483179 0.00256401 0.00997743
0.00781495 0.00650325 0.00691126
0.0072048 0.00623313 0.00515198
0.00254582 0.00219747 0.0051356
0 0.00143586 0.00417514
0.00179352 0.00347428 0.0040299
0.00770498 0.00325409 0.00312968
0.00873774 0.00228586 0.00502571
0 0.00270918 0.00154168
0.00469257 0.00146184 -1.79894e-05
0.00564736 0.00222843 0.00217441
0.00445962 0.0035539 0.00158479
0.00151833 6.28663e-06 0.00405369
0.00472819 2.63108e-05 0.00166847
0.00294617 0.00696703 -1.15208e-05
0.0021719 0.00806293 0.00193577
0.00458844 0.00627443 0.00162637
0.00898314 0.00805424 0.00795476
0.00896558 0.00488617 0.00797971
0.00943346 0.00615474 0.00590587
0.0112344 0.00891954 0.00414394
0.0085044 0.00769951 0.00492709
0.00960467 0.0100543 0.00412618
0.00895324 0.00804019 0.00198046
0.00398166 0.00305961 0.0069426
0.00499597 0.0036926 0.00830164
0.00439093 0.00162909 0.00595014
0.00561289 0.0077039 0.00765163
0.00223059 0.00801852 0.00798069
0.00316168 0.0100142 0.00711447
0.00438671 0.00842552 0.00593943
0 0.00695361 0.00262895
0.001848 0.00624804 0.00408027
0 0.0040177 0.00850214
0.00260049 0.00499827 0.00765081
0.00161111 0.00418186 0.00999347
0.00805876 0.0071765 0.00995933
0.00687504 0.00601755 0.00838544
0.00230026 0.00795226 0.00473244
0.00341469 0.00696042 0.00645379
0.0017816 0.00608657 0.00591868
0.0112483 0.00587967 0.00826082
0 0.00718191 0.00711644
0.00177866 0.00578212 -7.03268e-06
0 0.00577432 0.00158701
0.0112422 0.00725181 0.00706147
0.00322777 0.00336668 0.00998547
0.0112631 0.0015129 0.0041253
0.00906922 0.00202061 0.00194228
0.00945534 0.00358098 0.00395799
0.00420264 0.00167532 0.00411035
0.00168883 0.0100067 0.00580824
0.0031763 1.56684e-05 0.00711437
0.00687818 0.00421965 0.00834407
0.0112397 0.00734349 0.00414589
0.00964251 6.50175e-05 0.00412568
0.00376301 0.00289187 -1.44299e-05
0.00304602 0.00155612 0.00998628
0.00318569 1.62305e-05 0.00281884
0.00539393 0.00522727 0.00753004
0.00355443 0.00316584 0.00315237
0 0.00849157 0.00581511
0.00547632 0.00370533 0.00376299
0.00172961 0.00271637 -6.78907e-06
0.00650413 0.0083599 0.0099679
0.00670062 0.0100348 0.00847329
0.00471575 0.010023 0.00829626
0.00450322 0.00852588 0.00997918
0.0112366 0.00856064 0.00576255
0.0035309 0.00685223 0.00313593
0 0.00748929 0.00137438
0.00153944 0.00749564 -6.09209e-06
0 0.00287343 0.00335182
0 0.00580816 0.00831736
0 0.00429792 0.00253898
0.00284762 0.00431089 -1.10429e-05
0.00161015 0.00582633 0.00999344
0.00580988 0.00650552 0.00637459
0.00404525 0.00653081 0.0082163
0.00781972 0.00267419 0.0099609
0.00902855 0.00201583 0.00799122
0.00784793 4.95718e-05 0.00304889
0.00677191 0.00170475 0.00358398
0.0112569 0.00294893 0.00330352
0 0.00140616 0.00256446
0.00714655 0.00826691 0.00638853
0.00654477 0.00147467 -2.49956e-05
0.00678359 0.00359104 0.00157585
0.00353073 0.0100165 0.00581007
0.00959955 0.0100541 0.00578908
0.00288088 0.00142064 -1.10616e-05
0.00672742 4.10532e-05 0.00146688
0.00704109 0.00832639 0.00358755
0.00963722 6.46635e-05 0.00578851
0.00698168 0.00171428 0.00633346
0.00157872 0.00257075 0.00999357
0.00798464 0.00722733 -3.06042e-05
0.00579049 0.00772037 0.00214547
0.00666823 0.00612948 0.00157525
0 0.00686719 0.00578184
0.0112629 0.00148357 0.00251716
0.00199329 0.00361914 0.00639954
0.0112354 0.00855631 0.00257668
0.00944928 0.00624652 0.00409164
0.00669649 0.0100354 0.00146756
0.00784876 4.95424e-05 0.00688963
0.011264 0.00151213 0.00576654
0.00944439 0.00363261 0.00601674
0.00169451 7.12635e-06 0.00580829
0 0.0013659 0.00748679
0.00153842 6.53927e-06 0.00752282
0.011242 0.00693712 0.00572963
0.0065174 0.00852649 -2.46841e-05
0 0.0075208 0.00859127
0.00153151 0.00749311 0.00999374
0.00473938 0.00822938 0.00360852
0.00963812 0.0100545 0.00746489
0.0112376 0.00869887 0.0074709
0.00649767 0.00162457 0.00996814
0.00816125 0.00423558 0.00995886
0 0.0057735 0.00666667
0.00153372 0.0100062 0.00752254
0 0.00863025 0.00752641
0.00967238 6.56109e-05 0.00246693
0.0112406 0.00702347 0.00258172
0.00950124 0.00639968 0.00212427
0.00956361 0.00588121 0.00995062
0.0084317 0.00142707 0.00995732
0.00967604 6.50769e-05 0.00746506
0.011266 0.00144255 0.00743097
0 0.00143551 0.00581971
0.00673043 4.03833e-05 0.00847387
0.00474042 2.66332e-05 0.00337991
0.00891529 0.00476203 0.00199839
0.011251 0.0043721 0.00249237
0.00473287 0.0100232 0.00664581
0.00317044 0.0100143 0.00281881
0.00147469 6.22825e-06 0.002412
0 0.00727418 0.00419576
0.011247 0.00584557 0.0066125
0.00781481 0.0100425 0.00304925
0.0084244 0.0086845 0.00995717
0 0.00574334 0.00336387
0 0.0043297 0.00416652
0.00771663 0.0058272 0.00996104
0.0112585 0.00309734 0.0068603
0.00475503 2.63332e-05 0.00664573
0.00277405 0.0100123 0.00859953
0.00842346 0.00141979 -3.23298e-05
0.0064815 0.00670074 0.00996816
0.0112424 0.00759043 0.00853452
0.0096689 0.00761045 0.00994991
0.00777304 0.00306938 -3.00772e-05
0.00377174 0.00576086 -1.47259e-05
0.00844174 0.00867824 -3.24229e-05
0.00842504 0.0100467 0.00135391
0.00648438 0.00690221 -2.46334e-05
0.00782815 0.00641504 0.00300072
0.00845967 5.52263e-05 0.00135357
0.0032377 0.00501358 0.00998542
0.00486149 0.00585684 0.00997699
0.00486416 0.00419058 0.00997704
0.00842847 0.0100466 0.00857358
0.00278607 1.38392e-05 0.00859985
0.011245 0.00581623 0.00331569
0 0.00302218 0.00691532
0.0112558 0.0040915 0.00844533
0.00955873 0.00407854 -3.63886e-05
0.0112574 0.00278516 0.00149643
0 0.00244495 0.00857025
0.00274118 0.00858282 0.00998786
0.00846366 5.46241e-05 0.00857406
0.00955229 0.00268447 0.00995081
0.00995704 0.00425629 0.0099484
0.00635188 0.0100329 0.00580476
0.00581389 0.00761373 0.00500707
0.00631975 0.0100329 0.00418825
0.0078151 0.0100423 0.00688967
0.00339064 0.00693017 0.0099847
0.00467561 0.00435305 -1.81401e-05
0.00318827 1.62021e-05 0.00439091
0.00354675 1.81086e-05 0.00581008
0.0112516 0.00426993 0.00108054
0.00407484 0.0083576 0.00157163
0.011251 0.00440344 0.00411632
0.00748308 0.00581623 -2.86396e-05
0.00963443 0.0100546 0.00246733
0 0.00848692 0.00262374
0.00151349 0.0100061 0.00405377
0 0.00885053 0.00419359
0.00469705 0.00887432 -1.81799e-05
0.00470581 0.0100234 0.00166879
0.00561047 0.00482032 0.00235594
0.0081101 0.00457017 -3.12098e-05
0.00634821 3.80341e-05 0.00418807
0.00638015 3.80381e-05 0.00580487
0.00147 0.010006 0.00241206
0.00964176 0.0025077 -3.66406e-05
0.0112526 0.00459499 0.00716416
0.00797513 0.0100432 0.00496495
0.00645686 0.0033993 0.0099685
0.00276436 1.3967e-05 0.00134511
0.0112626 0.00252067 0.00851316
0.00268738 0.00480331 0.00498867
0.00655063 0.00436681 -2.52743e-05
0.0093429 0.00586511 -3.56881e-05
0.00613828 0.0100315 0.00719208
0.0112522 0.00440371 0.00578043
0.00604987 0.0100314 0.00275094
0.00800886 5.08753e-05 0.00496487
0.00317375 0.0100143 0.00439119
0 0.00452174 0.00721958
0.00507277 0.00724484 0.00997591
0.00616574 3.62169e-05 0.00719224
0.00404237 0.00509308 0.00357952
0.00475914 0.0100233 0.00498774
0.00478217 2.68817e-05 0.0049875
0.00411933 0.00523631 0.00615703
0 0.005744 0.00499998
0 0.00433013 0.00583333
0.00560902 0.00577284 -2.15979e-05
0.00559048 0.00636762 0.00353019
0.00607802 3.61842e-05 0.00275042
0.0112457 0.00581695 0.00494855
0.00413876 0.00642726 0.00482652
0.00645278 0.00503415 0.00996846
0.0112449 0.00584725 0.001542
0 0.00666667 0
0.00964622 0.00757871 -3.67679e-05
0.00374857 2.06336e-05 -1.48546e-05
0 0.01 0.00666667
0.00560562 0.010028 0.00997304
0 0.00288419 0.00499914
0.0112388 0.00755883 0.0013298
0.0112421 0.00673824 -4.3334e-05
0 0.005 0.01
0.00561628 0.00291512 -2.15454e-05
0 0.005 0
0.0112696 7.99743e-05 0.00328483
0.0112335 0.0100654 0.00661239
0.00470252 0.00729745 -1.81357e-05
0.0112575 0.00295983 0.0049476
0.00562555 3.35283e-05 -2.19477e-05
0 0 0.00666667
0.00426528 0.00363743 0.00520816
0.00562995 3.27236e-05 0.00997355
0.0112715 7.94628e-05 0.00661203
0 0 0.005
0.00985073 0.0100562 0.00118128
0.0112344 0.00884876 0.00117558
0.0112703 7.96377e-05 0.00494827
0.0112489 0.0050738 -4.30476e-05
0.00136945 0.00122623 -5.32835e-06
0 0.00122008 0.00122008
0 0.00333333 0.01
0 0.00666667 0.01
0.0098554 0.00883805 -3.75104e-05
0.0112314 0.0100658 0.00328489
0.00471728 0.0100233 0.00338013
0.0112477 0.00673698 0.00994066
0 0.00333333 0
0 0.00122008 0.00877992
0.00137081 6.06967e-06 0.00877456
0.00137012 0.00122585 0.00999435
0.00985471 0.0100562 0.00872954
0.00136756 0.00878574 0.00999444
0 0.00877992 0.00877992
0.0112381 0.00884829 0.00872272
0.00747095 0.0100403 -2.87065e-05
0.0112637 0.00129809 0.00117518
0.00136668 0.0100056 0.00877393
0.00985964 0.00883762 0.00994867
0.0112542 0.00507242 0.00994061
0 0 0.00333333
0.00750416 4.77944e-05 -2.93127e-05
0.0098888 6.7803e-05 0.00118086
0.00136084 6.05069e-06 0.0012058
0 0.00877992 0.00122008
0.00136611 0.00878572 -5.51669e-06
0.00135622 0.0100056 0.00120621
0.0112679 0.00129701 0.00872252
0.00988929 0.0012853 0.00994885
0.00750913 4.68929e-05 0.0099631
0.00988378 0.00128662 -3.76232e-05
0.00989294 6.69265e-05 0.00872993
0.0112556 0.00340881 -4.30399e-05
0.00373538 0.0100177 0.00998282
0.0027512 0.0100123 0.00134515
0.00747685 0.0100398 0.00996248
0.0112609 0.003408 0.00994086
0 0.01 0.005
0.00293812 0.00850038 -1.16296e-05
0.0112323 0.0100654 0.00494911
0 0.01 0.00333333
0 0.00166667 0
0.0112693 8.0105e-05 0.00162086
0 0.00166667 0.01
0 0.00833333 0
0.0112367 0.00840246 -4.26089e-05
0.0112731 7.93163e-05 0.00827652
0.0112311 0.0100661 0.00162133
0.0112348 0.0100657 0.00827645
0.00186703 0.0100081 0.00999199
0 0.01 0.00833333
0.00934748 0.0100525 -3.61272e-05
0.00938462 6.37361e-05 -3.60736e-05
0.00939002 6.26292e-05 0.00995207
0.00935268 0.0100527 0.00995174
0 0 0.00833333
0.0112414 0.00840226 0.00994068
0.00187331 9.34514e-06 -7.42974e-06
0 0 0.00166667
0.00373055 0.0100178 -1.46864e-05
0.0112678 0.001743 0.00994082
0.0112624 0.00174416 -4.3077e-05
0.00187396 8.87571e-06 0.00999206
0.00186488 0.0100081 -7.57186e-06
0 0.01 0.00166667
0.0112358 0.0100659 0.00994087
0 0 0.01
0.0112311 0.0100664 -4.28261e-05
0.0112746 7.9024e-05 0.00994116
0 0.01 0.01
0.0112693 8.04835e-05 -4.3411e-05
0 0.01 0
0 0 0
0.00559942 0.0100287 -2.15455e-05
0.00375162 1.95709e-05 0.0099832
0 0.00833333 0.01

CELLS 343 686
1 0
1 1
1 2
1 3
1 4
1 5
1 6
1 7
1 8
1 9
1 10
1 11
1 12
1 13
1 14
1 15
1 16
1 17
1 18
1 19
1 20
1 21
1 22
1 23
1 24
1 25
1 26
1 27
1 28
1 29
1 30
1 31
1 32
1 33
1 34
1 35
1 36
1 37
1 38
1 39
1 40
1 41
1 42
1 43
1 44
1 45
1 46
1 47
1 48
1 49
1 50
1 51
1 52
1 53
1 54
1 55
1 56
1 57
1 58
1 59
1 60
1 61
1 62
1 63
1 64
1 65
1 66
1 67
1 68
1 69
1 70
1 71
1 72
1 73
1 74
1 75
1 76
1 77
1 78
1 79
1 80
1 81
1 82
1 83
1 84
1 85
1 86
1 87
1 88
1 89
1 90
1 91
1 92
1 93
1 94
1 95
1 96
1 97
1 98
1 99
1 100
1 101
1 102
1 103
1 104
1 105
1 106
1 107
1 108
1 109
1 110
1 111
1 112
1 113
1 114
1 115
1 116
1 117
1 118
1 119
1 120
1 121
1 122
1 123
1 124
1 125
1 126
1 127
1 128
1 129
1 130
1 131
1 132
1 133
1 134
1 135
1 136
1 137
1 138
1 139
1 140
1 141
1 142
1 143
1 144
1 145
1 146
1 147
1 148
1 149
1 150
1 151
1 152
1 153
1 154
1 155
1 156
1 157
1 158
1 159
1 160
1 161
1 162
1 163
1 164
1 165
1 166
1 167
1 168
1 169
1 170
1 171
1 172
1 173
1 174
1 175
1 176
1 177
1 178
1 179
1 180
1 181
1 182
1 183
1 184
1 185
1 186
1 187
1 188
1 189
1 190
1 191
1 192
1 193
1 194
1 195
1 196
1 197
1 198
1 199
1 200
1 201
1 202
1 203
1 204
1 205
1 206
1 207
1 208
1 209
1 210
1 211
1 212
1 213
1 214
1 215
1 216
1 217
1 218
1 219
1 220
1 221
1 222
1 223
1 224
1 225
1 226
1 227
1 228
1 229
1 230
1 231
1 232
1 233
1 234
1 235
1 236
1 237
1 238
1 239
1 240
1 241
1 242
1 243
1 244
1 245
1 246
1 247
1 248
1 249
1 250
1 251
1 252
1 253
1 254
1 255
1 256
1 257
1 258
1 259
1 260
1 261
1 262
1 263
1 264
1 265
1 266
1 267
1 268
1 269
1 270
1 271
1 272
1 273
1 274
1 275
1 276
1 277
1 278
1 279
1 280
1 281
1 282
1 283
1 284
1 285
1 286
1 287
1 288
1 289
1 290
1 291
1 292
1 293
1 294
1 295
1 296
1 297
1 298
1 299
1 300
1 301
1 302
1 303
1 304
1 305
1 306
1 307
1 308
1 309
1 310
1 311
1 312
1 313
1 314
1 315
1 316
1 317
1 318
1 319
1 320
1 321
1 322
1 323
1 324
1 325
1 326
1 327
1 328
1 329
1 330
1 331
1 332
1 333
1 334
1 335
1 336
1 337
1 338
1 339
1 340
1 341
1 342

CELL_TYPES 343
1
1
1
1
1
1
1
1
1
1
1
1
1
1
1
1
1
1
1
1
1
1
1
1
1
1
1
1
1
1
1
1
1
1
1
1
1
1
1
1
1
1
1
1
1
1
1
1
1
1
1
1
1
1
1
1
1
1
1
1
1
1
1
1
1
1
1
1
1
1
1
1
1
1
1
1
1
1
1
1
1
1
1
1
1
1
1
1
1
1
1
1
1
1
1
1
1
1
1
1
1
1
1
1
1
1
1
1
1
1
1
1
1
1
1
1
1
1
1
1
1
1
1
1
1
1
1
1
1
1
1
1
1
1
1
1
1
1
1
1
1
1
1
1
1
1
1
1
1
1
1
1
1
1
1
1
1
1
1
1
1
1
1
1
1
1
1
1
1
1
1
1
1
1
1
1
1
1
1
1
1
1
1
1
1
1
1
1
1
1
1
1
1
1
1
1
1
1
1
1
1
1
1
1
1
1
1
1
1
1
1
1
1
1
1
1
1
1
1
1
1
1
1
1
1
1
1
1
1
1
1
1
1
1
1
1
1
1
1
1
1
1
1
1
1
1
1
1
1
1
1
1
1
1
1
1
1
1
1
1
1
1
1
1
1
1
1
1
1
1
1
1
1
1
1
1
1
1
1
1
1
1
1
1
1
1
1
1
1
1
1
1
1
1
1
1
1
1
1
1
1
1
1
1
1
1
1
1
1
1
1
1
1
1
1
1
1
1
1
1
1
1
1
1
1
1
1
1
1
1
1
1
1
1
1
1
1
1
1
1
1
1
1

POINT_DATA 343
FIELD FieldData 8

NodeID_(#) 1 343 int
0
1
2
3
4
5
6
7
8
9
10
11
12
13
14
15
16
17
18
19
20
21
22
23
24
25
26
27
28
29
30
31
32
33
34
35
36
37
38
39
40
41
42
43
44
45
46
47
48
49
50
51
52
53
54
55
56
57
58
59
60
61
62
63
64
65
66
67
68
69
70
71
72
73
74
75
76
77
78
79
80
81
82
83
84
85
86
87
88
89
90
91
92
93
94
95
96
97
98
99
100
101
102
103
104
105
106
107
108
109
110
111
112
113
114
115
116
117
118
119
120
121
122
123
124
125
126
127
128
129
130
131
132
133
134
135
136
137
138
139
140
141
142
143
144
145
146
147
148
149
150
151
152
153
154
155
156
157
158
159
160
161
162
163
164
165
166
167
168
169
170
171
172
173
174
175
176
177
178
179
180
181
182
183
184
185
186
187
188
189
190
191
192
193
194
195
196
197
198
199
200
201
202
203
204
205
206
207
208
209
210
211
212
213
214
215
216
217
218
219
220
221
222
223
224
225
226
227
228
229
230
231
232
233
234
235
236
237
238
239
240
241
242
243
244
245
246
247
248
249
250
251
252
253
254
255
256
257
258
259
260
261
262
263
264
265
266
267
268
269
270
271
272
273
274
275
276
277
278
279
280
281
282
283
284
285
286
287
288
289
290
291
292
293
294
295
296
297
298
299
300
301
302
303
304
305
306
307
308
309
310
311
312
313
314
315
316
317
318
319
320
321
322
323
324
325
326
327
328
329
330
331
332
333
334
335
336
337
338
339
340
341
342

Component_(#) 1 343 int
0
0
0
0
0
0
0
0
0
0
0
0
0
0
0
0
0
0
0
0
0
0
0
0
0
0
0
0
0
0
0
0
0
0
0
0
0
0
0
0
0
0
0
0
0
0
0
0
0
0
0
0
0
0
0
0
0
0
0
0
0
0
0
0
0
0
0
0
0
0
0
0
0
0
0
0
0
0
0
0
0
0
0
0
0
0
0
0
0
0
0
0
0
0
0
0
0
0
0
0
0
0
0
0
0
0
0
0
0
0
0
0
0
0
0
0
0
0
0
0
0
0
0
0
0
0
0
0
0
0
0
0
0
0
0
0
0
0
0
0
0
0
0
0
0
0
0
0
0
0
0
0
0
0
0
0
0
0
0
0
0
0
0
0
0
0
0
0
0
0
0
0
0
0
0
0
0
0
0
0
0
0
0
0
0
0
0
0
0
0
0
0
0
0
0
0
0
0
0
0
0
0
0
0
0
0
0
0
0
0
0
0
0
0
0
0
0
0
0
0
0
0
0
0
0
0
0
0
0
0
0
0
0
0
0
0
0
0
0
0
0
0
0
0
0
0
0
0
0
0
0
0
0
0
0
0
0
0
0
0
0
0
0
0
0
0
0
0
0
0
0
0
0
0
0
0
0
0
0
0
0
0
0
0
0
0
0
0
0
0
0
0
0
0
0
0
0
0
0
0
0
0
0
0
0
0
0
0
0
0
0
0
0
0
0
0
0
0
0
0
0
0
0
0
0
0
0
0
0
0
0
0
0
0
0
0
0
0
0
0
0
0
0

NodalMass_(kg) 1 343 double
3.15563e-06
1.41304e-05
2.20912e-06
1.71484e-05
8.42e-06
9.09306e-06
9.93033e-06
7.52198e-06
6.81096e-06
5.58223e-06
3.10888e-06
1.07575e-05
4.87011e-06
1.64955e-05
3.0246e-06
8.05984e-06
6.703e-06
1.0877e-05
4.18978e-06
8.16106e-06
6.14143e-06
1.17902e-05
2.23114e-06
4.25176e-06
1.09915e-05
7.41467e-06
4.21871e-06
3.92484e-06
3.08766e-06
1.31268e-05
7.72627e-06
1.65404e-05
1.19037e-05
7.29666e-06
3.81683e-06
1.11001e-05
3.81317e-06
1.39137e-05
6.37414e-06
8.00975e-06
7.6712e-06
1.18847e-05
1.6399e-05
2.78633e-06
8.93599e-06
2.58087e-06
7.57362e-06
4.23241e-06
1.31286e-05
3.80168e-06
2.7746e-06
7.16776e-06
1.21307e-05
5.11765e-06
8.19728e-06
4.58094e-06
2.79503e-06
3.26126e-06
4.12443e-06
2.11915e-06
3.35177e-06
3.61669e-06
1.56838e-05
7.33679e-06
8.24695e-06
5.00369e-06
2.82625e-06
7.20276e-06
3.26815e-06
4.18751e-06
2.02785e-06
2.42152e-06
3.11835e-06
5.97459e-06
5.87101e-06
4.09374e-06
5.45463e-06
2.28825e-06
4.49759e-06
4.38192e-06
4.50892e-06
4.39234e-06
4.27273e-06
5.32031e-06
1.53201e-06
2.38869e-06
2.02885e-06
4.38798e-06
3.17972e-06
3.14298e-06
4.61567e-06
5.87645e-06
8.18088e-06
2.48341e-06
1.53815e-05
3.49683e-06
7.35227e-06
2.01314e-06
2.0408e-06
7.98183e-06
4.41293e-06
7.1389e-06
1.20123e-06
5.03343e-06
1.61257e-06
4.12601e-06
8.73748e-06
4.37849e-06
7.97173e-06
2.13557e-06
3.38137e-06
9.48623e-06
7.40262e-06
1.80226e-06
2.10222e-06
7.98889e-06
1.87983e-06
7.44814e-06
4.19782e-06
2.37156e-06
4.31705e-06
6.06441e-06
4.30905e-06
2.16843e-06
1.8986e-06
1.81294e-06
3.89762e-06
2.44299e-06
1.65628e-06
8.01374e-06
1.64513e-06
2.3931e-06
3.01363e-06
2.99431e-06
1.36541e-06
1.87293e-06
2.09622e-06
1.94762e-06
1.87618e-06
6.37913e-06
4.58628e-06
2.02767e-06
1.61999e-06
2.41284e-06
3.8865e-06
4.44973e-06
2.29839e-06
1.17349e-05
3.11811e-06
1.354e-06
3.45063e-06
1.81846e-06
2.9382e-06
1.37381e-06
2.41464e-06
2.10451e-06
2.63927e-06
2.14166e-06
1.7943e-06
3.19976e-06
1.36989e-06
2.43489e-06
2.08158e-06
1.3601e-06
2.17203e-06
1.89924e-06
3.16996e-06
2.6119e-06
2.37677e-06
1.60225e-06
1.90684e-06
5.49206e-06
1.87878e-06
3.14313e-06
2.97301e-06
1.18454e-06
1.89263e-06
2.04166e-06
2.73572e-06
2.42405e-06
3.23083e-06
3.19752e-06
3.2142e-06
1.94492e-06
1.61196e-06
1.86876e-06
3.22435e-06
2.1114e-06
2.96917e-06
6.15288e-06
2.3097e-06
2.39729e-06
2.38029e-06
2.64508e-06
1.66557e-06
1.82377e-06
2.06583e-06
5.73271e-06
2.08467e-06
2.18324e-06
2.43522e-06
3.1188e-06
3.17316e-06
2.05447e-06
1.9592e-06
3.05718e-06
6.44327e-06
2.08796e-06
2.72615e-06
2.15709e-06
1.86812e-06
2.0028e-06
2.10999e-06
2.88994e-06
2.3222e-06
2.3979e-06
1.97629e-06
6.4127e-06
2.16225e-06
3.29198e-06
2.10223e-06
2.66566e-06
1.94415e-06
2.91865e-06
2.58116e-06
2.11703e-06
2.09534e-06
1.91719e-06
7.06046e-06
2.25203e-06
2.06378e-06
6.28159e-06
2.12147e-06
2.90924e-06
2.12921e-06
6.4487e-06
1.41701e-06
2.0682e-06
6.58062e-06
2.52584e-06
2.39732e-06
7.42191e-07
2.22368e-06
7.06751e-07
7.00657e-07
8.93749e-07
2.53536e-06
2.26535e-06
1.33607e-06
7.84725e-07
2.32303e-06
6.06694e-07
6.68276e-07
6.84307e-07
2.51242e-06
2.31629e-06
7.8367e-07
6.80839e-07
6.22692e-06
6.7471e-07
6.65305e-07
7.01158e-07
1.8232e-06
1.90695e-06
6.86722e-07
7.04792e-07
1.86445e-06
2.28572e-06
6.8045e-07
7.16005e-07
1.82373e-06
6.01079e-07
2.02791e-06
7.4579e-07
5.74423e-07
1.80052e-06
1.454e-06
2.2702e-06
1.80636e-06
2.15356e-06
1.79089e-06
1.79456e-06
6.8231e-07
2.24737e-06
1.45239e-06
1.79556e-06
6.97875e-07
6.24265e-07
6.62717e-07
1.44627e-06
1.40138e-06
2.15258e-06
1.82851e-06
1.3994e-06
1.43932e-06
2.19226e-06
6.97732e-07
1.77726e-06
1.79162e-06
6.54258e-07
7.3397e-07
2.34895e-06
7.10392e-07
6.56982e-07
6.26314e-07
2.18926e-06
6.12493e-07
6.03901e-07
5.92831e-07
5.12031e-07
5.11667e-07
4.9467e-07
4.97016e-07
4.96269e-07
5.33079e-07
4.94191e-07
4.97855e-07
4.86862e-07
4.90626e-07
4.94649e-07
4.94954e-07
4.91922e-07
4.89615e-07
4.96354e-07
4.95189e-07
4.82188e-07
1.10854e-06
5.3299e-07
5.44763e-07
5.36655e-07
5.15417e-07
5.01772e-07
5.53774e-07
5.53774e-07
5.53774e-07
5.53774e-07
5.53774e-07
5.53774e-07
5.50785e-07
5.50785e-07
7.45291e-07
7.11668e-07
4.9897e-07

NodalForce_(N) 3 343 double
8.49443e-06 -1.06715e-06 -2.27846e-07
8.15898e-05 -1.3969e-05 -8.56305e-08
-0.000504038 -0.000456937 -0.000330801
4.99833e-05 -1.27708e-05 3.53771e-06
4.02006e-05 -6.25203e-05 1.03545e-05
7.40015e-05 -5.45172e-05 8.55628e-06
0.000152042 -0.000144722 1.48391e-05
0.000102653 -7.46579e-05 6.08941e-06
5.91376e-05 -8.14713e-05 1.19907e-05
6.31873e-05 -3.11078e-05 2.55458e-06
1.88062e-06 -1.97637e-05 5.01647e-07
3.45783e-05 -8.76307e-05 7.67878e-06
-8.55655e-06 -3.19092e-05 -5.7778e-07
3.96561e-05 -7.42413e-06 1.32041e-06
1.09581e-05 -1.51615e-05 1.31687e-06
0.000153031 -8.72748e-05 9.08351e-06
0.000118219 -6.46595e-05 3.04094e-06
3.28626e-05 -8.76318e-06 3.04856e-06
0.000831167 -0.000631403 0.000393093
2.53645e-05 -1.94633e-06 -4.57971e-07
5.8631e-05 -8.05464e-05 9.37073e-06
8.1585e-05 -0.000195723 2.79467e-05
3.33051e-05 0.000914654 0.000484043
1.4026e-05 -2.6358e-05 1.14537e-06
5.24335e-05 -8.66633e-05 1.53806e-05
5.4267e-05 -3.20835e-05 4.73156e-06
2.52059e-06 -7.41132e-07 8.57291e-07
-6.03734e-07 -2.49266e-05 4.22572e-06
2.76868e-05 -5.65688e-06 -9.10425e-07
9.59002e-05 -7.80469e-06 -2.82408e-06
9.70178e-05 -3.00351e-05 7.81069e-07
0.000427011 -0.000242274 3.04955e-05
0.000177277 -0.000177762 2.5305e-05
0.000151111 -0.000122783 1.09791e-05
0.000125766 -8.93984e-05 2.37113e-06
0.00027811 -0.000153035 2.83656e-06
0.00013293 -6.70429e-05 -7.7858e-07
0.000387562 -0.000225329 1.56488e-06
3.10082e-05 -1.63307e-05 2.20685e-06
5.14221e-05 -3.17672e-05 4.92522e-06
1.57159e-05 -3.51116e-05 5.25555e-06
0.000200947 -6.44374e-05 4.29973e-06
0.000108986 -5.98903e-06 -5.34896e-06
3.65659e-05 -4.78413e-06 -1.70759e-06
0.00013652 -3.06972e-05 -5.04066e-06
-0.000978906 -0.000666797 0.000252318
3.64838e-05 -3.51216e-06 -1.42056e-06
0.000282868 -0.000992553 0.000240602
7.43015e-05 -5.41357e-06 -1.2876e-06
1.15848e-05 -5.23083e-07 -5.58799e-07
5.5949e-05 -3.24189e-05 5.45431e-06
0.000108493 -5.71106e-05 8.4174e-06
8.62604e-05 -5.18317e-06 -5.68604e-06
4.77509e-05 -5.9743e-06 -2.19965e-06
3.57059e-05 -1.51014e-06 -1.20742e-06
9.59682e-05 -0.000104528 1.36835e-05
-0.000971246 -0.00052167 -0.000527847
1.56012e-05 -2.51753e-06 -6.44644e-07
-0.000420539 -0.000199365 6.82179e-06
5.54357e-05 -4.81225e-05 5.12759e-06
1.42775e-05 -5.03986e-06 8.31794e-07
2.46503e-05 -9.49905e-05 1.17299e-05
0.000114002 -0.000288653 3.3258e-05
9.16733e-05 -0.000136241 1.55536e-05
1.9425e-05 -3.58647e-05 7.62785e-06
3.28764e-05 4.75522e-07 -2.19872e-06
-3.98625e-06 -8.12534e-06 4.07125e-07
7.06101e-05 -6.06716e-05 8.83722e-06
9.01181e-05 -7.68554e-05 3.77841e-06
9.73043e-07 -8.82439e-05 1.19019e-05
1.16093e-05 -6.39857e-06 9.19329e-08
3.51129e-06 -5.67367e-06 2.49011e-07
-1.80393e-06 -9.42059e-06 1.67494e-06
6.14533e-05 -2.58369e-05 3.60902e-06
3.0965e-05 -1.29954e-05 2.60443e-06
-0.00175358 -0.000543001 -0.000158668
4.39408e-05 -3.29205e-05 4.91132e-06
6.80428e-06 -5.94062e-07 -3.01398e-07
8.87364e-05 -3.58499e-05 5.74492e-06
0.000111805 -3.79296e-05 5.40494e-06
8.21723e-05 -1.97462e-05 1.31732e-06
6.21478e-05 -1.75766e-05 1.82286e-06
0.000132879 -9.82009e-05 6.0518e-06
5.33952e-05 -1.05917e-05 -1.08737e-06
-0.000453114 0.00068593 -0.000423703
1.1954e-05 -4.0698e-07 -6.01377e-07
-0.000310821 0.000419546 -0.000280833
0.00089739 -4.66218e-05 1.1572e-05
4.10838e-05 -0.000358636 0.000118958
2.00798e-05 -5.63328e-06 -1.34473e-07
1.68288e-05 5.57908e-08 -6.23117e-07
8.78791e-05 -3.29048e-05 1.45919e-06
8.04156e-05 -1.27907e-05 8.29394e-07
1.35128e-05 -3.3057e-05 3.56368e-06
7.78551e-05 -0.000274343 2.85086e-05
-9.27736e-07 -5.24112e-05 7.49664e-06
2.83122e-05 -8.00512e-05 1.30608e-05
2.46196e-05 -5.16454e-05 5.696e-06
-0.000178479 -0.000266084 1.20123e-05
0.000182117 -7.68225e-05 1.39654e-06
1.64286e-05 -4.81475e-05 3.85994e-06
6.87334e-05 -7.56868e-05 8.39291e-06
1.74752e-05 -2.92563e-06 -5.80858e-07
0.00017231 -8.6901e-05 2.29769e-06
4.04804e-06 -3.97734e-06 3.27119e-08
-1.93235e-06 -4.77712e-05 6.94335e-06
0.000206728 -8.73802e-05 -2.63894e-06
-1.33827e-06 -9.24007e-05 1.08277e-05
2.58817e-05 -8.95873e-05 1.16662e-05
4.41866e-06 2.51033e-08 -1.91569e-07
8.02284e-05 -4.67239e-05 3.76979e-07
0.000182874 -6.68515e-05 -2.24087e-06
0.000127818 -6.84854e-05 2.67977e-06
0.000608603 1.89377e-05 0.000670209
1.51258e-05 -5.57884e-05 6.32413e-06
2.69076e-05 -1.75917e-06 8.42646e-07
6.05483e-05 -4.50089e-05 1.1635e-06
0.000162063 -0.000132138 7.37581e-06
0.000117791 -4.08329e-05 -2.57879e-06
-4.14523e-06 -3.62519e-05 3.16361e-06
2.71648e-05 -0.000113128 1.38874e-05
7.1584e-05 -0.000108336 1.45171e-05
3.13956e-06 -1.41947e-06 1.52147e-07
-0.00023565 -0.00013851 -0.000193712
1.29129e-06 -6.06577e-07 -2.41805e-07
4.64055e-05 -4.17688e-05 3.27092e-06
9.28826e-05 -3.64622e-05 -1.4471e-06
-0.000305038 0.000479873 0.000702775
6.71664e-06 -1.82458e-08 -2.52433e-07
0.000133489 -3.60353e-05 -4.74024e-06
5.53205e-05 -2.87786e-05 2.8563e-06
7.4006e-05 -5.40479e-05 5.56931e-06
4.3911e-06 -3.21963e-05 2.28175e-06
3.22527e-05 -3.8179e-05 5.28452e-06
-0.00120593 0.000495033 8.80266e-05
1.06386e-05 1.23494e-08 -3.54391e-07
-0.000456624 -0.000215055 6.83731e-05
1.55976e-06 -4.15824e-05 5.0899e-06
5.05286e-05 -4.5434e-05 2.13017e-06
0.000146818 -0.000118964 5.12396e-06
8.4453e-05 -7.67756e-05 1.21279e-05
4.35841e-06 -3.47207e-05 2.51402e-06
-1.69336e-06 -3.54474e-05 2.53461e-06
1.28625e-05 -6.37791e-05 6.70897e-06
0.000604791 -0.000405512 2.32194e-05
-1.16135e-05 -5.30724e-05 1.47076e-06
-2.52275e-06 -1.50532e-05 2.79279e-06
0.000193872 -0.000201075 1.45375e-05
5.47983e-05 -7.96229e-05 6.2992e-06
2.63396e-05 -6.29431e-06 -6.11933e-07
4.86503e-05 -6.38675e-06 -2.38613e-06
1.53168e-06 -4.88918e-07 3.6763e-07
-0.000122471 0.000433481 -0.000186753
2.94158e-05 -3.19638e-05 3.41416e-06
7.43014e-05 -3.02025e-05 -1.42028e-06
5.3271e-05 -2.85781e-05 4.91316e-06
-0.00060753 0.000548424 -0.000151577
0.000416682 -0.000292494 -0.000151548
2.73785e-05 -1.88038e-05 3.42338e-06
3.6641e-05 -7.94246e-05 9.81627e-06
-2.446e-06 -9.08078e-06 6.11158e-07
2.72258e-05 -3.41034e-06 -2.08116e-07
1.08441e-05 -3.47891e-05 2.77144e-06
2.07235e-05 -9.744e-06 1.7715e-06
5.80742e-05 -4.88145e-05 6.36416e-06
4.63513e-05 -3.25199e-05 5.51278e-06
3.07167e-05 -4.48115e-05 3.69324e-06
2.61965e-05 -7.12376e-06 -1.88717e-07
6.93497e-05 -3.55817e-05 -1.78087e-07
5.24735e-05 -2.37006e-05 -5.22947e-07
3.68887e-05 -1.7775e-05 -1.59933e-07
0.000110424 -6.81512e-05 2.67761e-06
9.94203e-07 -3.24544e-05 3.74218e-06
1.92332e-05 -2.94257e-06 7.52043e-07
2.84449e-05 -9.03412e-06 2.0402e-06
7.92349e-06 -4.19877e-06 7.60152e-07
5.73856e-05 -2.63382e-05 3.97519e-06
-2.14717e-06 -5.16527e-06 -4.05069e-07
6.155e-05 -6.76895e-05 4.37009e-06
-0.000511051 2.58446e-05 0.000342346
4.65186e-05 -7.72016e-05 9.10857e-06
4.91937e-05 -6.47205e-05 4.14199e-06
3.9207e-05 -8.44914e-05 7.56651e-06
-0.00047336 0.000303362 -0.0003563
1.36287e-05 -2.19849e-06 4.51365e-08
-3.84134e-06 -3.36525e-05 1.33881e-06
2.31337e-05 -6.17552e-05 6.38065e-06
2.75733e-05 -4.06499e-05 5.26501e-06
7.4904e-05 -2.41469e-05 -1.17726e-06
0.000111065 -3.90576e-05 -1.44941e-06
5.94463e-05 -1.93099e-05 -1.65193e-06
7.05737e-05 -2.86756e-05 1.1465e-06
1.96668e-05 -2.04205e-06 5.14525e-07
2.51162e-05 -1.26232e-05 8.64582e-07
-9.29706e-07 -5.30795e-06 1.20195e-06
-2.25037e-06 -6.67641e-06 1.11538e-06
3.63846e-05 -5.38718e-05 3.90749e-06
8.47452e-05 -2.14902e-05 -1.5051e-06
3.58861e-05 -5.16029e-05 5.29963e-06
3.96269e-05 -2.73642e-05 9.79219e-07
8.6314e-05 -4.4129e-05 -5.69351e-07
-0.000879725 0.000464613 -4.29691e-05
1.80023e-05 -7.79836e-08 -1.37659e-06
-0.000482567 -0.000350213 -0.00029415
3.59492e-05 -1.04266e-05 -7.36712e-07
6.35261e-05 -1.57047e-05 -1.8101e-06
7.34463e-05 -4.00193e-05 3.37054e-06
3.15038e-05 -3.12665e-05 1.94466e-06
-2.18449e-06 -2.91347e-05 4.62003e-06
-2.91695e-06 -2.31805e-05 2.58036e-06
1.07698e-05 -1.29014e-07 -6.68591e-07
1.98984e-05 -4.11783e-05 2.96056e-06
3.52751e-05 -4.97977e-05 6.27835e-06
8.85586e-05 -3.6343e-05 -9.90292e-07
1.49596e-05 -1.8927e-05 2.4127e-06
-3.92803e-07 -5.74254e-06 9.05025e-07
1.71577e-05 -5.05436e-05 5.39684e-06
3.65499e-05 -5.771e-06 3.95371e-07
2.58567e-05 -2.15124e-05 1.59049e-06
7.07584e-05 -6.25888e-05 2.6576e-06
5.07525e-05 -1.56733e-05 3.9569e-07
4.41464e-05 -6.42168e-05 7.51785e-06
4.93952e-05 -1.54364e-05 -1.6792e-06
-2.47169e-06 -4.51675e-05 6.0398e-06
3.53661e-05 -4.45667e-06 -1.96601e-06
0.000299557 -6.87104e-05 -0.000265281
2.77738e-05 -8.25639e-06 1.52056e-06
-3.7072e-06 -1.95415e-05 1.06491e-06
6.24878e-05 -1.9201e-05 1.11492e-06
4.5656e-05 -1.06193e-05 -1.68377e-06
-3.17205e-06 -1.37609e-05 2.2649e-06
5.45026e-05 -1.38708e-05 5.37755e-07
-0.00125238 8.91007e-05 -2.27958e-05
-9.81488e-05 -0.000107773 -0.000267521
3.03502e-05 -1.40854e-05 4.25737e-07
9.63789e-05 -3.74162e-05 7.65053e-07
-8.49225e-07 -1.40482e-05 2.32489e-06
4.53896e-05 -4.96587e-05 4.31424e-06
7.16853e-05 -1.62321e-05 -1.45789e-06
2.73748e-05 -1.70967e-05 3.16756e-06
5.5419e-05 -6.09473e-05 3.41571e-06
-0.000432245 0.000114306 -0.000177265
6.18164e-05 -4.31517e-05 7.31444e-07
1.68229e-07 -3.45473e-06 4.57847e-07
-0.000321418 0.000169424 -0.000190403
1.83315e-05 -5.91098e-06 1.11014e-06
-0.00137349 -0.000461646 0.000257344
6.60081e-05 -5.54484e-05 1.84876e-06
3.5616e-05 -3.40578e-05 1.36164e-06
-3.61662e-05 -0.000154009 -0.000194903
1.6214e-05 -1.76487e-05 1.17263e-06
8.10853e-05 0.00039152 0.000201253
1.23601e-06 -1.82133e-05 2.1994e-06
2.44607e-05 -1.55253e-05 1.1181e-06
3.82725e-05 -1.19809e-05 -4.74933e-07
2.69628e-05 -5.83436e-05 7.29503e-06
1.05561e-07 -7.20929e-06 7.98105e-07
0.000240669 0.000288549 0.000311528
3.98407e-05 -1.81363e-05 2.93829e-06
-1.72719e-06 -6.64344e-06 -2.30955e-07
4.58263e-07 -1.83005e-05 1.81722e-06
0.000163674 0.000206393 0.000278644
6.58813e-05 -3.48951e-05 -2.24698e-07
6.41375e-05 -4.61593e-05 9.46528e-07
8.80028e-07 -1.86962e-05 2.2344e-06
1.4611e-05 -1.84617e-05 1.02098e-06
3.31842e-06 -9.54767e-07 -2.77195e-07
-0.000428738 -0.000636611 0.000177081
0.000159522 -0.000617617 -0.000246209
9.19813e-05 -0.000213013 -0.000278641
5.88881e-05 -3.58426e-05 3.76826e-08
2.22495e-05 -1.39891e-05 1.54306e-07
4.17003e-05 -9.94144e-06 -1.83648e-06
1.71948e-05 -1.68092e-05 2.70405e-06
-8.73243e-05 0.000191754 7.39258e-06
-0.00033572 -0.000401392 -0.000184813
7.41611e-07 -7.96794e-07 -5.46379e-07
3.1479e-06 -7.29456e-07 -8.54592e-08
6.02926e-05 -3.31611e-05 5.26848e-06
8.81259e-06 -3.98348e-07 -3.59739e-07
-0.00038847 -0.000286611 0.000255978
5.56586e-05 -4.08285e-05 5.80787e-06
2.09344e-05 -8.35516e-06 -4.31518e-07
1.53832e-05 -6.00546e-05 5.49349e-06
7.21299e-06 -2.70064e-07 1.6864e-07