# vtk DataFile Version 4.2
vtk output
ASCII
DATASET UNSTRUCTURED_GRID

POINTS 343 double
0.0014388 0.00420704 -1.30285e-05
0.00278408 0.00500504 0.00215076
0 0.00419538 0.00112517
0.00247278 0.00197449 0.00192037
0.0065839 0.00244133 0.00497565
0.00659225 0.00387035 0.00634838
0.00967566 0.00482713 0.00491534
0.00791994 0.00489765 0.0036141
0.00868306 0.00333178 0.00685452
0.00636816 0.00503475 0.00494436
0.00531365 0.00114615 0.00996816
0.00671876 0.00211443 0.00786047
0.00532734 1.74984e-05 0.00828128
0.00257666 0.00202297 0.0080111
0.00545328 0.00256474 0.00996757
0.00884464 0.00650349 0.00688689
0.00816292 0.00623524 0.00511331
0.00289429 0.00220666 0.00512126
0 0.00143586 0.00417514
0.00204463 0.00348291 0.00401913
0.00868091 0.00323572 0.00307188
0.00981928 0.0022524 0.00497996
0 0.00270918 0.00154168
0.0052839 0.00145637 -6.11817e-05
0.00637107 0.00222121 0.00213077
0.00505222 0.00356064 0.00154938
0.00172215 1.35452e-05 0.00404549
0.0053172 1.64532e-05 0.00163302
0.00335484 0.00697816 -3.6646e-05
0.00248811 0.00807286 0.00192271
0.00521737 0.00628677 0.00158919
0.010157 0.00805583 0.00793761
0.010102 0.00486954 0.00796377
0.0106337 0.00614153 0.00586454
0.0126329 0.00891209 0.00407284
0.00962455 0.00770132 0.00487914
0.0108585 0.0100686 0.00406312
0.0101175 0.00804127 0.00190093
0.00451674 0.00306764 0.00692289
0.00565602 0.00369838 0.00828714
0.00496606 0.00162859 0.0059285
0.00638558 0.00771417 0.00763275
0.00255465 0.0080275 0.00796721
0.00362212 0.0100289 0.00709576
0.0050106 0.00843807 0.00591543
0 0.00695361 0.00262895
0.00211288 0.00625634 0.00406912
0 0.0040177 0.00850214
0.00296766 0.00500933 0.00763596
0.00183663 0.00418942 0.00998419
0.00910804 0.00717927 0.00995473
0.00778456 0.00602138 0.00837162
0.0026343 0.00796203 0.00471843
0.00389904 0.00697187 0.00643297
0.00203611 0.00609483 0.00590824
0.0126168 0.00585034 0.00824132
0 0.00718191 0.00711644
0.00203047 0.00579028 -1.94845e-05
0 0.00577432 0.00158701
0.0126263 0.00723407 0.00702909
0.00365693 0.00337554 0.00997637
0.0125756 0.00144623 0.00405626
0.0101754 0.00198044 0.00186325
0.0106258 0.00355017 0.00389608
0.00475482 0.00167523 0.00408705
0.00194026 0.0100172 0.00579768
0.00358233 1.71815e-05 0.00709784
0.00776923 0.00421626 0.00832956
0.0126248 0.00732977 0.00407599
0.0107822 3.20109e-06 0.00406629
0.0042562 0.00289915 -4.80592e-05
0.00343999 0.00156156 0.00997765
0.00359374 1.562e-05 0.00280042
0.0061192 0.00523492 0.0075124
0.00403824 0.00317564 0.00313216
0 0.00849157 0.00581511
0.00620203 0.00370773 0.00372822
0.00196802 0.00272597 -1.87979e-05
0.00737717 0.00836922 0.00996225
0.00761644 0.0100514 0.00846102
0.00537936 0.0100381 0.00828088
0.00512421 0.00853592 0.00996956
0.0126338 0.00855106 0.00571324
0.00403023 0.00686376 0.00311536
0 0.00748929 0.00137438
0.0017616 0.00750387 -1.64006e-05
0 0.00287343 0.00335182
0 0.00580816 0.00831736
0 0.00429792 0.00253898
0.00323496 0.00432133 -3.49938e-05
0.00183864 0.00583383 0.0099843
0.00660231 0.00651407 0.0063493
0.00460474 0.00654357 0.0082016
0.0087892 0.00265196 0.0099547
0.0101334 0.00197778 0.00797485
0.00879559 1.07334e-05 0.00299054
0.00762417 0.00168582 0.00353761
0.0125866 0.00289401 0.00322342
0 0.00140616 0.00256446
0.00811371 0.0082746 0.00636003
0.00734953 0.00145489 -8.93095e-05
0.00765114 0.00358187 0.00151612
0.00404252 0.0100311 0.00579104
0.0108549 0.0100683 0.00574536
0.00325346 0.00142409 -3.51994e-05
0.00754239 1.2703e-05 0.00140973
0.00799356 0.00833464 0.00353804
0.0107784 3.69396e-06 0.00574914
0.00786091 0.0016949 0.00630716
0.00179555 0.00257926 0.00998484
0.00902152 0.00722945 -0.000113675
0.0065847 0.00773003 0.00209765
0.00755173 0.0061343 0.00151519
0 0.00686719 0.00578184
0.0125699 0.00141551 0.0024294
0.00227194 0.00362845 0.00638816
0.0126259 0.00854665 0.00248724
0.0106523 0.00623229 0.00403075
0.00761015 0.0100524 0.00140512
0.00879792 1.02923e-05 0.00686687
0.0125781 0.00144691 0.00572127
0.0106142 0.00360143 0.00597916
0.00192153 1.4766e-05 0.00579874
0 0.0013659 0.00748679
0.00174488 1.31458e-05 0.00751313
0.0126249 0.00691896 0.0056789
0.00739297 0.0085368 -9.3361e-05
0 0.0075208 0.00859127
0.0017518 0.00749978 0.00998511
0.00540894 0.00824153 0.00357765
0.0108953 0.0100674 0.00744119
0.0126342 0.00869098 0.00744291
0.00730455 0.00160866 0.00996149
0.00918985 0.00422123 0.00995358
0 0.0057735 0.00666667
0.0017614 0.0100154 0.00751291
0 0.00863025 0.00752641
0.0108102 2.48505e-06 0.00239031
0.0126179 0.00700728 0.00249309
0.0107065 0.0063875 0.0020418
0.0107683 0.00586598 0.00994786
0.0094527 0.00139271 0.00995252
0.0108181 3.51137e-06 0.00744248
0.0125766 0.00137667 0.00740475
0 0.00143551 0.00581971
0.00755122 1.39127e-05 0.00846076
0.00533573 1.52736e-05 0.0033497
0.0100408 0.00474341 0.00191989
0.0125964 0.0043279 0.00240055
0.00540684 0.0100394 0.00662407
0.00363324 0.0100301 0.00279872
0.00167321 1.25433e-05 0.00240459
0 0.00727418 0.00419576
0.0126167 0.00581398 0.00657492
0.00886453 0.0100587 0.00298799
0.00952809 0.00868878 0.00995278
0 0.00574334 0.00336387
0 0.0043297 0.00416652
0.00871243 0.00582434 0.00995677
0.0125932 0.00304318 0.0068276
0.005353 1.60951e-05 0.00662654
0.00317727 0.0100258 0.00858711
0.00943784 0.00138178 -0.000116895
0.00733938 0.00670679 0.00996168
0.0126275 0.00757393 0.00851745
0.0109025 0.00760513 0.00994758
0.00873869 0.00304749 -0.000107724
0.0042842 0.00577342 -4.84411e-05
0.00954235 0.00868422 -0.000120678
0.00953766 0.0100623 0.00127486
0.0073437 0.00690873 -9.19871e-05
0.00885385 0.0064148 0.0029404
0.00946654 7.34815e-06 0.00127816
0.0036766 0.00502453 0.00997606
0.00551186 0.00586628 0.00996868
0.00550304 0.00419748 0.00996813
0.00954918 0.0100599 0.00856203
0.00314247 1.50946e-05 0.00858711
0.0126122 0.00578187 0.00323442
0 0.00302218 0.00691532
0.0126016 0.00404525 0.00842806
0.0107278 0.00404685 -0.00013661
0.0125784 0.00272844 0.00139434
0 0.00244495 0.00857025
0.00312739 0.00859226 0.00997881
0.00947516 8.67015e-06 0.00856198
0.0107124 0.00264572 0.00994779
0.0111789 0.00422465 0.00994594
0.0072346 0.0100498 0.00577618
0.00661612 0.00762321 0.00497508
0.00719786 0.01005 0.00414748
0.00886934 0.0100576 0.00686483
0.00385721 0.00694194 0.00997536
0.00529312 0.00436134 -6.22037e-05
0.00359912 1.62416e-05 0.00437426
0.00400072 1.70465e-05 0.00579281
0.012589 0.00422439 0.000973553
0.00464746 0.00836917 0.00153931
0.0126023 0.00436086 0.00404847
0.00844897 0.00581334 -0.000105859
0.0108866 0.010069 0.00238787
0 0.00848692 0.00262374
0.00173731 0.010015 0.00404432
0 0.00885053 0.00419359
0.00534538 0.00888647 -6.42204e-05
0.00537152 0.0100397 0.00162965
0.00635956 0.00482658 0.00231146
0.00913269 0.00455581 -0.000114211
0.00713359 1.37886e-05 0.00414906
0.00717058 1.40508e-05 0.00577765
0.00168728 0.0100148 0.00240328
0.0107994 0.0024648 -0.000137022
0.0126063 0.00455389 0.0071348
0.00904719 0.0100599 0.00492059
0.00728098 0.00339426 0.00996081
0.00311753 1.3946e-05 0.00132712
0.0125862 0.00246215 0.00849725
0.00306459 0.00481388 0.0049731
0.00739071 0.00436278 -9.069e-05
0.010513 0.00585094 -0.000133667
0.00699073 0.0100479 0.00716995
0.0126044 0.00436131 0.00573287
0.00689076 0.0100482 0.00270343
0.00897682 9.60173e-06 0.00492244
0.00363772 0.0100297 0.00437165
0 0.00452174 0.00721958
0.00576007 0.00725636 0.00996785
0.00692823 1.49035e-05 0.00717239
0.00460271 0.00510433 0.00355532
0.0054408 0.010041 0.00496047
0.00538539 1.48314e-05 0.00496317
0.00468974 0.00524758 0.00613459
0 0.005744 0.00499998
0 0.00433013 0.00583333
0.00635194 0.00578122 -7.74306e-05
0.00635461 0.00637663 0.00349247
0.00682648 1.40936e-05 0.00270657
0.0126159 0.00578192 0.00489027
0.00471995 0.00643907 0.00480205
0.00729341 0.00503631 0.00996109
0.012605 0.00581414 0.00143826
0 0.00666667 0
0.0108639 0.00757258 -0.000139006
0.00421352 1.27195e-05 -4.45029e-05
0 0.01 0.00666667
0.00637312 0.0100455 0.00996388
0 0.00288419 0.00499914
0.0126154 0.0075461 0.00122274
0.0126027 0.00671446 -0.000160486
0 0.005 0.01
0.00633097 0.00291107 -7.58995e-05
0 0.005 0
0.0125544 -7.63983e-06 0.00320601
0.012636 0.0100779 0.00657507
0.0053429 0.0073094 -6.41476e-05
0.0125907 0.00290324 0.00489021
0.00630784 1.09504e-05 -7.15504e-05
0 0 0.00666667
0.00484514 0.00364626 0.00518468
0.0063158 1.42117e-05 0.00996314
0.0125594 -6.62156e-06 0.00657778
0 0 0.005
0.011117 0.0100706 0.00108601
0.0126212 0.00884312 0.00106736
0.012558 -6.98288e-06 0.00489264
0.0125887 0.00503479 -0.000161094
0.00155637 0.00123199 -1.46558e-05
0 0.00122008 0.00122008
0 0.00333333 0.01
0 0.00666667 0.01
0.0111036 0.00884022 -0.000142496
0.0126315 0.0100783 0.00320473
0.00539197 0.0100403 0.00334773
0.012617 0.00671438 0.00994096
0 0.00333333 0
0 0.00122008 0.00877992
0.00155376 1.07223e-05 0.00876602
0.00155668 0.00123207 0.00998718
0.0111299 0.0100677 0.0087185
0.00156652 0.00879193 0.00998674
0 0.00877992 0.00877992
0.0126346 0.00884205 0.00870802
0.00846871 0.0100584 -0.000105613
0.0125627 0.00122673 0.00107096
0.00156846 0.0100135 0.00876688
0.0111232 0.00883873 0.00994686
0.0126045 0.00503578 0.00994089
0 0 0.00333333
0.00839774 6.98153e-06 -9.9235e-05
0.0110407 6.60967e-07 0.00108964
0.00154281 1.05004e-05 0.00119897
0 0.00877992 0.00122008
0.00156525 0.00879243 -1.45315e-05
0.00155597 0.0100136 0.00119676
0.0125742 0.00122889 0.00870923
0.0110624 0.00123267 0.0099464
0.00840935 1.01135e-05 0.0099549
0.0110477 0.00122969 -0.000139693
0.011052 2.71307e-06 0.00871896
0.0125749 0.00335631 -0.000160556
0.00426146 0.0100322 0.00997301
0.00315188 0.0100268 0.00132499
0.00847885 0.0100568 0.00995568
0.0125903 0.0033553 0.00994021
0 0.01 0.005
0.00335257 0.00851198 -3.65762e-05
0.0126348 0.0100787 0.00488743
0 0.01 0.00333333
0 0.00166667 0
0.0125491 -7.13099e-06 0.00152272
0 0.00166667 0.01
0 0.00833333 0
0.0126112 0.00839459 -0.00016343
0.0125591 -5.3062e-06 0.00825894
0.0126259 0.0100773 0.00151877
0.0126363 0.0100763 0.0082577
0.00213919 0.0100183 0.0099832
0 0.01 0.00833333
0.0105537 0.0100698 -0.000132768
0.0104789 2.53623e-07 -0.000128825
0.0104928 4.06164e-06 0.00994721
0.01057 0.0100659 0.00994759
0 0 0.00833333
0.0126285 0.00839173 0.00994043
0.00211496 9.74233e-06 -1.96885e-05
0 0 0.00166667
0.00425817 0.0100333 -4.90965e-05
0.0125749 0.00167927 0.00994007
0.0125598 0.00167679 -0.000159393
0.00211665 1.17653e-05 0.00998408
0.00213692 0.0100186 -2.16413e-05
0 0.01 0.00166667
0.0126372 0.0100751 0.00993888
0 0 0.01
0.0126188 0.0100768 -0.000162302
0.0125589 -4.30059e-06 0.00993892
0 0.01 0.01
0.0125432 -8.39114e-06 -0.000156803
0 0.01 0
0 0 0
0.00636814 0.0100467 -7.80282e-05
0.00421759 1.65579e-05 0.0099732
0 0.00833333 0.01

CELLS 343 686
1 0
1 1
1 2
1 3
1 4
1 5
1 6
1 7
1 8
1 9
1 10
1 11
1 12
1 13
1 14
1 15
1 16
1 17
1 18
1 19
1 20
1 21
1 22
1 23
1 24
1 25
1 26
1 27
1 28
1 29
1 30
1 31
1 32
1 33
1 34
1 35
1 36
1 37
1 38
1 39
1 40
1 41
1 42
1 43
1 44
1 45
1 46
1 47
1 48
1 49
1 50
1 51
1 52
1 53
1 54
1 55
1 56
1 57
1 58
1 59
1 60
1 61
1 62
1 63
1 64
1 65
1 66
1 67
1 68
1 69
1 70
1 71
1 72
1 73
1 74
1 75
1 76
1 77
1 78
1 79
1 80
1 81
1 82
1 83
1 84
1 85
1 86
1 87
1 88
1 89
1 90
1 91
1 92
1 93
1 94
1 95
1 96
1 97
1 98
1 99
1 100
1 101
1 102
1 103
1 104
1 105
1 106
1 107
1 108
1 109
1 110
1 111
1 112
1 113
1 114
1 115
1 116
1 117
1 118
1 119
1 120
1 121
1 122
1 123
1 124
1 125
1 126
1 127
1 128
1 129
1 130
1 131
1 132
1 133
1 134
1 135
1 136
1 137
1 138
1 139
1 140
1 141
1 142
1 143
1 144
1 145
1 146
1 147
1 148
1 149
1 150
1 151
1 152
1 153
1 154
1 155
1 156
1 157
1 158
1 159
1 160
1 161
1 162
1 163
1 164
1 165
1 166
1 167
1 168
1 169
1 170
1 171
1 172
1 173
1 174
1 175
1 176
1 177
1 178
1 179
1 180
1 181
1 182
1 183
1 184
1 185
1 186
1 187
1 188
1 189
1 190
1 191
1 192
1 193
1 194
1 195
1 196
1 197
1 198
1 199
1 200
1 201
1 202
1 203
1 204
1 205
1 206
1 207
1 208
1 209
1 210
1 211
1 212
1 213
1 214
1 215
1 216
1 217
1 218
1 219
1 220
1 221
1 222
1 223
1 224
1 225
1 226
1 227
1 228
1 229
1 230
1 231
1 232
1 233
1 234
1 235
1 236
1 237
1 238
1 239
1 240
1 241
1 242
1 243
1 244
1 245
1 246
1 247
1 248
1 249
1 250
1 251
1 252
1 253
1 254
1 255
1 256
1 257
1 258
1 259
1 260
1 261
1 262
1 263
1 264
1 265
1 266
1 267
1 268
1 269
1 270
1 271
1 272
1 273
1 274
1 275
1 276
1 277
1 278
1 279
1 280
1 281
1 282
1 283
1 284
1 285
1 286
1 287
1 288
1 289
1 290
1 291
1 292
1 293
1 294
1 295
1 296
1 297
1 298
1 299
1 300
1 301
1 302
1 303
1 304
1 305
1 306
1 307
1 308
1 309
1 310
1 311
1 312
1 313
1 314
1 315
1 316
1 317
1 318
1 319
1 320
1 321
1 322
1 323
1 324
1 325
1 326
1 327
1 328
1 329
1 330
1 331
1 332
1 333
1 334
1 335
1 336
1 337
1 338
1 339
1 340
1 341
1 342

CELL_TYPES 343
1
1
1
1
1
1
1
1
1
1
1
1
1
1
1
1
1
1
1
1
1
1
1
1
1
1
1
1
1
1
1
1
1
1
1
1
1
1
1
1
1
1
1
1
1
1
1
1
1
1
1
1
1
1
1
1
1
1
1
1
1
1
1
1
1
1
1
1
1
1
1
1
1
1
1
1
1
1
1
1
1
1
1
1
1
1
1
1
1
1
1
1
1
1
1
1
1
1
1
1
1
1
1
1
1
1
1
1
1
1
1
1
1
1
1
1
1
1
1
1
1
1
1
1
1
1
1
1
1
1
1
1
1
1
1
1
1
1
1
1
1
1
1
1
1
1
1
1
1
1
1
1
1
1
1
1
1
1
1
1
1
1
1
1
1
1
1
1
1
1
1
1
1
1
1
1
1
1
1
1
1
1
1
1
1
1
1
1
1
1
1
1
1
1
1
1
1
1
1
1
1
1
1
1
1
1
1
1
1
1
1
1
1
1
1
1
1
1
1
1
1
1
1
1
1
1
1
1
1
1
1
1
1
1
1
1
1
1
1
1
1
1
1
1
1
1
1
1
1
1
1
1
1
1
1
1
1
1
1
1
1
1
1
1
1
1
1
1
1
1
1
1
1
1
1
1
1
1
1
1
1
1
1
1
1
1
1
1
1
1
1
1
1
1
1
1
1
1
1
1
1
1
1
1
1
1
1
1
1
1
1
1
1
1
1
1
1
1
1
1
1
1
1
1
1
1
1
1
1
1
1
1
1
1
1
1
1
1
1
1
1
1
1

POINT_DATA 343
FIELD FieldData 8

NodeID_(#) 1 343 int
0
1
2
3
4
5
6
7
8
9
10
11
12
13
14
15
16
17
18
19
20
21
22
23
24
25
26
27
28
29
30
31
32
33
34
35
36
37
38
39
40
41
42
43
44
45
46
47
48
49
50
51
52
53
54
55
56
57
58
59
60
61
62
63
64
65
66
67
68
69
70
71
72
73
74
75
76
77
78
79
80
81
82
83
84
85
86
87
88
89
90
91
92
93
94
95
96
97
98
99
100
101
102
103
104
105
106
107
108
109
110
111
112
113
114
115
116
117
118
119
120
121
122
123
124
125
126
127
128
129
130
131
132
133
134
135
136
137
138
139
140
141
142
143
144
145
146
147
148
149
150
151
152
153
154
155
156
157
158
159
160
161
162
163
164
165
166
167
168
169
170
171
172
173
174
175
176
177
178
179
180
181
182
183
184
185
186
187
188
189
190
191
192
193
194
195
196
197
198
199
200
201
202
203
204
205
206
207
208
209
210
211
212
213
214
215
216
217
218
219
220
221
222
223
224
225
226
227
228
229
230
231
232
233
234
235
236
237
238
239
240
241
242
243
244
245
246
247
248
249
250
251
252
253
254
255
256
257
258
259
260
261
262
263
264
265
266
267
268
269
270
271
272
273
274
275
276
277
278
279
280
281
282
283
284
285
286
287
288
289
290
291
292
293
294
295
296
297
298
299
300
301
302
303
304
305
306
307
308
309
310
311
312
313
314
315
316
317
318
319
320
321
322
323
324
325
326
327
328
329
330
331
332
333
334
335
336
337
338
339
340
341
342

Component_(#) 1 343 int
0
0
0
0
0
0
0
0
0
0
0
0
0
0
0
0
0
0
0
0
0
0
0
0
0
0
0
0
0
0
0
0
0
0
0
0
0
0
0
0
0
0
0
0
0
0
0
0
0
0
0
0
0
0
0
0
0
0
0
0
0
0
0
0
0
0
0
0
0
0
0
0
0
0
0
0
0
0
0
0
0
0
0
0
0
0
0
0
0
0
0
0
0
0
0
0
0
0
0
0
0
0
0
0
0
0
0
0
0
0
0
0
0
0
0
0
0
0
0
0
0
0
0
0
0
0
0
0
0
0
0
0
0
0
0
0
0
0
0
0
0
0
0
0
0
0
0
0
0
0
0
0
0
0
0
0
0
0
0
0
0
0
0
0
0
0
0
0
0
0
0
0
0
0
0
0
0
0
0
0
0
0
0
0
0
0
0
0
0
0
0
0
0
0
0
0
0
0
0
0
0
0
0
0
0
0
0
0
0
0
0
0
0
0
0
0
0
0
0
0
0
0
0
0
0
0
0
0
0
0
0
0
0
0
0
0
0
0
0
0
0
0
0
0
0
0
0
0
0
0
0
0
0
0
0
0
0
0
0
0
0
0
0
0
0
0
0
0
0
0
0
0
0
0
0
0
0
0
0
0
0
0
0
0
0
0
0
0
0
0
0
0
0
0
0
0
0
0
0
0
0
0
0
0
0
0
0
0
0
0
0
0
0
0
0
0
0
0
0
0
0
0
0
0
0
0
0
0
0
0
0
0
0
0
0
0
0
0
0
0
0
0
0

NodalMass_(kg) 1 343 double
3.15563e-06
1.41304e-05
2.20912e-06
1.71484e-05
8.42e-06
9.09306e-06
9.93033e-06
7.52198e-06
6.81096e-06
5.58223e-06
3.10888e-06
1.07575e-05
4.87011e-06
1.64955e-05
3.0246e-06
8.05984e-06
6.703e-06
1.0877e-05
4.18978e-06
8.16106e-06
6.14143e-06
1.17902e-05
2.23114e-06
4.25176e-06
1.09915e-05
7.41467e-06
4.21871e-06
3.92484e-06
3.08766e-06
1.31268e-05
7.72627e-06
1.65404e-05
1.19037e-05
7.29666e-06
3.81683e-06
1.11001e-05
3.81317e-06
1.39137e-05
6.37414e-06
8.00975e-06
7.6712e-06
1.18847e-05
1.6399e-05
2.78633e-06
8.93599e-06
2.58087e-06
7.57362e-06
4.23241e-06
1.31286e-05
3.80168e-06
2.7746e-06
7.16776e-06
1.21307e-05
5.11765e-06
8.19728e-06
4.58094e-06
2.79503e-06
3.26126e-06
4.12443e-06
2.11915e-06
3.35177e-06
3.61669e-06
1.56838e-05
7.33679e-06
8.24695e-06
5.00369e-06
2.82625e-06
7.20276e-06
3.26815e-06
4.18751e-06
2.02785e-06
2.42152e-06
3.11835e-06
5.97459e-06
5.87101e-06
4.09374e-06
5.45463e-06
2.28825e-06
4.49759e-06
4.38192e-06
4.50892e-06
4.39234e-06
4.27273e-06
5.32031e-06
1.53201e-06
2.38869e-06
2.02885e-06
4.38798e-06
3.17972e-06
3.14298e-06
4.61567e-06
5.87645e-06
8.18088e-06
2.48341e-06
1.53815e-05
3.49683e-06
7.35227e-06
2.01314e-06
2.0408e-06
7.98183e-06
4.41293e-06
7.1389e-06
1.20123e-06
5.03343e-06
1.61257e-06
4.12601e-06
8.73748e-06
4.37849e-06
7.97173e-06
2.13557e-06
3.38137e-06
9.48623e-06
7.40262e-06
1.80226e-06
2.10222e-06
7.98889e-06
1.87983e-06
7.44814e-06
4.19782e-06
2.37156e-06
4.31705e-06
6.06441e-06
4.30905e-06
2.16843e-06
1.8986e-06
1.81294e-06
3.89762e-06
2.44299e-06
1.65628e-06
8.01374e-06
1.64513e-06
2.3931e-06
3.01363e-06
2.99431e-06
1.36541e-06
1.87293e-06
2.09622e-06
1.94762e-06
1.87618e-06
6.37913e-06
4.58628e-06
2.02767e-06
1.61999e-06
2.41284e-06
3.8865e-06
4.44973e-06
2.29839e-06
1.17349e-05
3.11811e-06
1.354e-06
3.45063e-06
1.81846e-06
2.9382e-06
1.37381e-06
2.41464e-06
2.10451e-06
2.63927e-06
2.14166e-06
1.7943e-06
3.19976e-06
1.36989e-06
2.43489e-06
2.08158e-06
1.3601e-06
2.17203e-06
1.89924e-06
3.16996e-06
2.6119e-06
2.37677e-06
1.60225e-06
1.90684e-06
5.49206e-06
1.87878e-06
3.14313e-06
2.97301e-06
1.18454e-06
1.89263e-06
2.04166e-06
2.73572e-06
2.42405e-06
3.23083e-06
3.19752e-06
3.2142e-06
1.94492e-06
1.61196e-06
1.86876e-06
3.22435e-06
2.1114e-06
2.96917e-06
6.15288e-06
2.3097e-06
2.39729e-06
2.38029e-06
2.64508e-06
1.66557e-06
1.82377e-06
2.06583e-06
5.73271e-06
2.08467e-06
2.18324e-06
2.43522e-06
3.1188e-06
3.17316e-06
2.05447e-06
1.9592e-06
3.05718e-06
6.44327e-06
2.08796e-06
2.72615e-06
2.15709e-06
1.86812e-06
2.0028e-06
2.10999e-06
2.88994e-06
2.3222e-06
2.3979e-06
1.97629e-06
6.4127e-06
2.16225e-06
3.29198e-06
2.10223e-06
2.66566e-06
1.94415e-06
2.91865e-06
2.58116e-06
2.11703e-06
2.09534e-06
1.91719e-06
7.06046e-06
2.25203e-06
2.06378e-06
6.28159e-06
2.12147e-06
2.90924e-06
2.12921e-06
6.4487e-06
1.41701e-06
2.0682e-06
6.58062e-06
2.52584e-06
2.39732e-06
7.42191e-07
2.22368e-06
7.06751e-07
7.00657e-07
8.93749e-07
2.53536e-06
2.26535e-06
1.33607e-06
7.84725e-07
2.32303e-06
6.06694e-07
6.68276e-07
6.84307e-07
2.51242e-06
2.31629e-06
7.8367e-07
6.80839e-07
6.22692e-06
6.7471e-07
6.65305e-07
7.01158e-07
1.8232e-06
1.90695e-06
6.86722e-07
7.04792e-07
1.86445e-06
2.28572e-06
6.8045e-07
7.16005e-07
1.82373e-06
6.01079e-07
2.02791e-06
7.4579e-07
5.74423e-07
1.80052e-06
1.454e-06
2.2702e-06
1.80636e-06
2.15356e-06
1.79089e-06
1.79456e-06
6.8231e-07
2.24737e-06
1.45239e-06
1.79556e-06
6.97875e-07
6.24265e-07
6.62717e-07
1.44627e-06
1.40138e-06
2.15258e-06
1.82851e-06
1.3994e-06
1.43932e-06
2.19226e-06
6.97732e-07
1.77726e-06
1.79162e-06
6.54258e-07
7.3397e-07
2.34895e-06
7.10392e-07
6.56982e-07
6.26314e-07
2.18926e-06
6.12493e-07
6.03901e-07
5.92831e-07
5.12031e-07
5.11667e-07
4.9467e-07
4.97016e-07
4.96269e-07
5.33079e-07
4.94191e-07
4.97855e-07
4.86862e-07
4.90626e-07
4.94649e-07
4.94954e-07
4.91922e-07
4.89615e-07
4.96354e-07
4.95189e-07
4.82188e-07
1.10854e-06
5.3299e-07
5.44763e-07
5.36655e-07
5.15417e-07
5.01772e-07
5.53774e-07
5.53774e-07
5.53774e-07
5.53774e-07
5.53774e-07
5.53774e-07
5.50785e-07
5.50785e-07
7.45291e-07
7.11668e-07
4.9897e-07

NodalForce_(N) 3 343 double
1.33477e-06 -3.15296e-07 1.33916e-07
-3.14363e-06 3.56114e-06 5.84431e-07
0.000941627 0.000827605 0.00041195
3.26895e-05 7.78423e-06 1.10226e-05
1.56714e-05 6.4991e-05 1.56014e-05
-1.15464e-05 7.52299e-05 1.72059e-05
-7.93361e-05 0.000153782 1.74241e-05
-3.54774e-05 7.39202e-05 1.3411e-06
-2.41516e-05 9.34906e-05 2.36373e-05
-1.66468e-05 3.90391e-05 2.55252e-06
6.07038e-06 1.9726e-05 6.30641e-06
1.38022e-05 9.66637e-05 2.96805e-05
2.26536e-05 2.92275e-05 1.05834e-05
2.64086e-05 2.25412e-05 2.81498e-06
-6.74972e-07 2.02343e-05 5.92345e-06
-9.25554e-05 0.000117241 1.87614e-05
-5.78207e-05 7.83658e-05 2.55952e-06
1.87371e-05 1.58594e-05 1.41308e-05
-0.00205197 0.00109975 -0.00115466
5.77837e-06 2.68596e-06 4.71997e-06
-1.25971e-05 7.05194e-05 6.68365e-06
-2.47924e-05 0.000185008 4.07438e-05
-0.000509223 -0.00264445 -0.000785995
1.44766e-05 1.81627e-05 3.81749e-06
2.47329e-05 6.82909e-05 1.1059e-05
1.55551e-06 1.98458e-05 2.26362e-06
9.41216e-06 1.14528e-06 4.1561e-06
2.03538e-05 1.81507e-05 5.17537e-06
-8.29051e-06 1.74105e-07 -2.74293e-06
-2.82284e-05 3.01407e-06 -1.03661e-05
-2.97105e-05 1.88645e-05 -8.87217e-06
-0.000318746 0.000319973 6.08703e-05
-0.000128185 0.000217755 5.74258e-05
-0.000104618 0.000139508 1.80788e-05
-0.000104899 9.43404e-05 -3.87727e-06
-0.000172099 0.000178608 -2.51391e-06
-9.60977e-05 7.94076e-05 -8.37042e-06
-0.000241426 0.000217406 -4.61705e-05
5.5704e-06 2.8497e-05 7.64868e-06
-8.52227e-06 5.55284e-05 1.33891e-05
2.68578e-05 3.83785e-05 1.3926e-05
-0.000115322 0.000104681 8.08807e-06
-4.2697e-05 2.50197e-05 -4.62722e-06
-2.17446e-05 9.48644e-06 -2.23486e-06
-6.90788e-05 4.91979e-05 -9.92411e-06
0.00187567 0.00134929 -0.000981054
-6.26245e-06 4.97834e-06 -3.29635e-06
-0.000305833 0.00219035 -0.000467104
-1.25377e-05 3.05988e-05 5.34007e-07
-1.02546e-06 5.25282e-06 2.15045e-07
-4.47524e-05 4.52897e-05 1.3293e-05
-6.59364e-05 8.69855e-05 1.94286e-05
-2.74297e-05 1.14297e-05 -1.21864e-05
-1.66338e-05 1.55574e-05 -2.54115e-06
-6.96589e-06 8.4999e-06 -1.17443e-06
-9.50626e-05 0.000117764 2.98664e-05
0.00272746 0.00138058 0.00152232
-1.85368e-06 -1.10228e-06 -3.96997e-07
0.000441122 9.63289e-05 8.40436e-05
-5.06787e-05 5.49885e-05 9.81572e-06
-2.74433e-06 1.25118e-05 3.16405e-06
-2.76884e-05 7.96898e-05 1.57528e-05
-2.22056e-05 0.000228909 2.27244e-05
-5.01335e-05 0.00012726 1.50566e-05
2.87604e-05 3.41622e-05 1.60293e-05
-1.54509e-05 2.00531e-06 -3.79177e-06
1.33331e-05 8.08602e-06 3.01299e-06
-3.56806e-05 8.55383e-05 2.29219e-05
-7.51619e-05 7.97058e-05 5.41098e-07
5.0677e-06 7.07088e-05 1.82426e-05
2.59632e-06 3.14552e-06 8.90488e-07
3.36656e-06 6.90334e-06 2.23261e-06
1.51051e-05 6.92847e-06 5.89632e-06
-2.31122e-05 4.58058e-05 8.14105e-06
6.7909e-06 1.16319e-05 6.36555e-06
0.00495878 0.00114097 0.000424528
-1.69237e-06 3.24155e-05 5.01386e-06
3.24011e-06 -3.91e-07 6.54847e-07
-6.75482e-05 5.37701e-05 1.46626e-05
-8.24584e-05 5.6123e-05 7.66577e-06
-5.59244e-05 3.30088e-05 1.24413e-06
-4.23679e-05 2.94039e-05 7.36896e-06
-0.000115345 0.000109647 8.70469e-06
-1.49659e-05 9.35534e-06 -4.91318e-06
0.000448877 -0.00252757 0.000537746
-3.39335e-06 -9.77139e-07 -5.0923e-07
0.000274178 -0.0014345 0.00134356
-0.00350373 -0.000194834 0.000685352
-7.9877e-05 0.000440309 -0.000196433
-4.08292e-07 2.57076e-07 1.08483e-07
-4.55949e-06 6.03429e-06 -8.7114e-08
-4.05633e-05 4.98335e-05 2.6808e-06
-3.55232e-05 3.7983e-05 4.63539e-06
-1.10698e-05 3.56448e-05 1.18131e-05
-5.56797e-05 0.000266592 8.29876e-05
1.60404e-05 4.17395e-05 8.89346e-06
1.83529e-05 7.02759e-05 1.32241e-05
-2.23468e-05 4.39772e-05 5.16285e-06
0.000250246 0.000366029 -0.000356663
-0.000111508 0.000103382 3.07651e-06
1.3858e-05 3.31962e-05 3.99207e-06
-1.03941e-05 5.59479e-05 1.17474e-06
-9.95253e-06 4.82731e-06 -1.86291e-06
-0.000129541 0.000109097 8.3074e-07
5.07712e-06 2.53098e-06 6.83588e-07
2.29577e-05 3.46853e-05 7.01534e-06
-0.000114917 9.78063e-05 -1.82375e-05
2.9413e-06 7.63279e-05 2.26725e-05
1.22656e-05 8.85344e-05 2.69836e-05
1.59482e-06 1.69932e-06 2.93209e-07
-4.54867e-05 3.5773e-05 -9.86551e-06
-8.54827e-05 6.31362e-05 -2.01093e-05
-5.41621e-05 5.44068e-05 -1.11211e-05
-0.00155684 -0.000947984 -0.00140663
-1.54684e-05 4.40101e-05 6.27124e-06
3.59538e-06 9.35004e-06 3.0009e-06
-4.95661e-05 4.39675e-05 -4.95642e-06
-0.000103234 0.000133636 1.11668e-06
-7.08532e-05 4.29068e-05 -1.61361e-05
8.36399e-06 3.05023e-05 1.05106e-05
-3.51019e-05 9.90061e-05 2.57456e-05
-4.70906e-05 0.000112603 2.46314e-05
9.11051e-06 2.60765e-06 3.22456e-06
0.000300588 0.000224556 -3.05313e-05
3.71351e-06 1.09213e-06 4.99181e-07
-4.04415e-05 4.56222e-05 5.29446e-06
-5.22278e-05 3.04944e-05 -1.26665e-05
0.000701069 -0.00266146 -0.0014052
-2.5264e-06 1.19008e-06 2.1493e-07
-6.05656e-05 4.21319e-05 -1.40501e-05
-4.42149e-05 3.65994e-05 4.77641e-06
-6.79832e-05 6.35432e-05 1.10588e-05
-4.87621e-08 3.17041e-05 1.11984e-05
-2.63178e-05 4.70851e-05 1.4753e-05
0.0030826 -0.00242829 -0.00117451
-5.54331e-06 1.01799e-06 -1.06377e-06
0.00140539 -0.00015637 -0.000554465
2.7499e-06 3.17283e-05 5.64827e-06
-4.11742e-05 4.34075e-05 -2.66033e-06
-9.08307e-05 0.00010684 -1.17575e-05
-7.52793e-05 9.56934e-05 2.90845e-05
-5.60661e-06 3.20072e-05 1.13157e-05
-4.87626e-07 2.88253e-05 9.62402e-06
-2.13564e-05 5.60604e-05 1.65939e-05
-0.00253126 0.000379806 0.00118436
1.84297e-05 4.56303e-05 1.68426e-05
1.34956e-05 1.197e-05 5.24413e-06
-9.55974e-05 0.000167833 -7.23669e-06
-4.56588e-05 6.67719e-05 1.60513e-06
-1.66574e-05 9.68118e-06 -1.15189e-06
-2.46111e-05 8.11428e-06 -5.99534e-06
3.72519e-06 4.48872e-07 9.06747e-07
-0.00024022 -0.00250949 -0.00037865
-2.70313e-05 3.40684e-05 6.67778e-06
-4.79128e-05 3.51074e-05 -8.37264e-06
-4.42743e-05 3.79089e-05 1.07151e-05
0.00121655 -0.00175876 0.000862677
-0.00145129 -0.000914764 -0.00142198
-2.12154e-05 2.66314e-05 8.0476e-06
-4.04824e-05 7.65346e-05 2.02927e-05
7.84608e-06 7.92339e-06 3.20445e-06
-1.77866e-05 7.25439e-06 -1.72755e-07
1.9102e-06 2.51992e-05 2.13085e-06
-1.47531e-05 1.53936e-05 4.74449e-06
-5.60399e-05 5.74407e-05 1.3945e-05
-4.10159e-05 4.0844e-05 1.23058e-05
-5.40088e-06 2.99081e-05 2.55676e-07
-6.0999e-06 1.03265e-06 -1.87051e-06
-4.39758e-05 3.0944e-05 -1.00905e-05
-3.47091e-05 2.46861e-05 -7.52828e-06
-1.74768e-05 1.19878e-05 -4.27292e-06
-5.67655e-05 6.67429e-05 -7.20347e-06
7.09334e-06 2.41025e-05 3.779e-06
-7.68335e-06 1.11133e-05 2.5715e-06
-1.63093e-05 2.01393e-05 6.18942e-06
-3.24352e-06 7.92233e-06 2.56548e-06
-4.52812e-05 3.50042e-05 6.59172e-06
7.81992e-06 5.03526e-06 1.37069e-06
-5.04795e-05 6.16136e-05 4.5314e-07
0.000814507 -0.00107995 -0.00155313
-5.20196e-05 7.98612e-05 2.26461e-05
-2.69421e-05 4.58518e-05 -3.01581e-06
-3.37371e-05 6.58077e-05 3.33909e-06
0.00119535 -0.00193572 0.000768541
-8.68247e-06 4.51229e-06 1.15311e-06
2.63378e-06 2.77949e-05 1.00852e-05
-2.59846e-05 6.26383e-05 2.14003e-05
-2.81507e-05 4.49214e-05 1.45395e-05
-4.74908e-05 3.36864e-05 -3.22865e-06
-5.44749e-05 5.08408e-05 -5.21424e-06
-3.56455e-05 2.4528e-05 -5.45885e-06
-5.05103e-05 3.84555e-05 1.98539e-06
-1.09156e-05 7.86173e-06 2.40456e-06
-2.9792e-06 4.99032e-06 -8.00251e-07
7.48229e-06 4.67513e-06 2.96777e-06
9.4856e-06 6.09183e-06 3.1032e-06
-2.98032e-05 4.18442e-05 -1.08389e-06
-3.73539e-05 1.87738e-05 -9.88181e-06
-3.11573e-05 4.76742e-05 5.26825e-06
-1.81992e-05 1.84215e-05 -4.00164e-06
-6.12512e-05 4.84373e-05 -9.7368e-06
0.00158931 -0.000975134 0.000516755
-7.47821e-06 7.67908e-07 -2.38151e-06
0.00105606 0.00126352 0.000597146
-1.88247e-05 8.45099e-06 -4.50504e-06
-3.41468e-05 1.68177e-05 -7.4206e-06
-1.59473e-05 3.24896e-05 -1.42476e-06
-1.30733e-05 2.14728e-05 -2.13952e-06
1.57322e-05 2.40778e-05 6.21328e-06
1.17942e-05 2.00816e-05 7.04126e-06
-3.95137e-06 2.78887e-07 -1.05192e-06
-8.86186e-06 2.9691e-05 2.63999e-07
-3.51763e-05 5.20109e-05 1.29652e-05
-6.01051e-05 4.62262e-05 -4.35588e-06
-8.33061e-06 2.49861e-05 7.99827e-06
1.04336e-05 3.76822e-06 1.51121e-06
-2.41339e-05 4.7447e-05 1.44522e-05
-3.35049e-06 1.09345e-05 9.8792e-07
-6.54203e-06 1.28211e-05 -1.51111e-06
-4.22778e-05 4.651e-05 -7.41019e-06
-3.40509e-05 2.30293e-05 -1.92099e-07
-4.12946e-05 6.39441e-05 1.20404e-05
-2.8545e-05 1.79293e-05 -5.77912e-06
1.15792e-05 3.77922e-05 1.07332e-05
-1.89415e-05 7.26335e-06 -5.07412e-06
-0.00186093 -0.000944026 -9.76485e-05
-1.81286e-05 1.57121e-05 4.57047e-06
9.78855e-06 1.70927e-05 6.35925e-06
-9.02005e-06 1.99839e-05 8.88102e-07
-2.66505e-05 1.54954e-05 -4.55742e-06
1.28971e-05 1.15358e-05 4.41826e-06
-1.18488e-05 2.683e-05 1.33576e-06
0.00300542 0.000849173 -0.000373953
-0.000149717 -0.00126082 0.00253572
-1.04371e-05 7.21123e-06 -3.02562e-06
-3.58385e-05 3.93006e-05 -6.08819e-06
8.10112e-06 1.10376e-05 3.12468e-06
-3.89945e-05 4.89375e-05 5.37438e-06
-2.15553e-05 2.39024e-05 -3.53138e-06
-1.77017e-05 2.74255e-05 8.69327e-06
-4.45856e-05 5.07803e-05 -4.24594e-06
-0.000507053 0.000945447 -0.000378101
-4.17763e-05 3.47399e-05 -8.57591e-06
3.58998e-06 2.07489e-06 4.31164e-07
8.29068e-05 -0.000117491 -0.00058708
-1.44469e-05 8.9349e-06 1.98924e-06
0.00315043 0.00121648 -0.000681639
-5.35167e-05 5.03356e-05 -8.56693e-06
-2.88415e-05 2.67641e-05 -4.4975e-06
-0.000593974 -0.00115639 0.000770448
2.42689e-06 1.07676e-05 6.57062e-07
-0.00131724 -0.000785823 -0.00130887
-2.92925e-06 1.35703e-05 2.87361e-06
-2.20172e-05 1.86899e-05 1.93024e-06
-1.61177e-05 6.76218e-06 -4.36586e-06
-2.64932e-05 5.27639e-05 1.02571e-05
4.3434e-06 4.59016e-06 9.30598e-07
-0.00212568 -0.00190713 0.000331175
2.91158e-06 2.58256e-05 6.46206e-06
2.4024e-06 5.38763e-06 1.96348e-06
-3.58598e-06 1.42676e-05 4.43789e-06
-0.00176645 -0.00165999 0.000236237
-4.78139e-05 3.5948e-05 -9.79622e-06
-5.22682e-05 4.32571e-05 -9.24589e-06
-3.23797e-06 1.44692e-05 4.00561e-06
-1.19402e-05 1.37616e-05 -1.29552e-06
3.35667e-06 7.40567e-07 4.76106e-07
0.00241023 0.00171655 -0.000354102
-0.00105441 0.000103861 0.000960202
-0.00106113 -0.00159091 0.00113154
-4.24e-05 3.18478e-05 -9.10294e-06
-1.86753e-05 1.54403e-05 -1.5859e-06
-2.28495e-05 1.26022e-05 -4.97063e-06
-1.83882e-05 1.95911e-05 6.13481e-06
-0.000922599 0.00114968 -0.000526463
0.000982009 0.00153316 0.000592894
2.5976e-06 9.75012e-07 4.55307e-07
2.3468e-06 1.57185e-06 1.43372e-07
-5.1401e-05 4.20259e-05 9.07844e-06
-3.98228e-06 1.54135e-06 2.45683e-07
0.00240958 0.000428849 -0.000209277
-5.31473e-05 4.83678e-05 1.16398e-05
-1.33399e-05 8.05556e-06 -2.79115e-06
-1.52035e-05 4.52745e-05 3.90068e-06
-4.12598e-06 9.85903e-07 -5.04616e-07
-4.62395e-05 4.1017e-05 1.18061e-05
-1.40761e-05 1.78023e-05 5.83923e-06
-0.0018312 -0.00165714 0.000920943
3.39023e-06 6.40903e-06 9.73539e-07