# vtk DataFile Version 4.2
vtk output
ASCII
DATASET UNSTRUCTURED_GRID

POINTS 343 double
0.00112603 0.00419463 5.08691e-08
0.00217855 0.00498149 0.00217548
0 0.00419538 0.00112517
0.00193314 0.00195346 0.00194231
0.00517582 0.00239672 0.00503369
0.00518326 0.00382122 0.00639838
0.00765002 0.00475509 0.00500241
0.00624736 0.0048371 0.00369466
0.00685054 0.00327166 0.00691576
0.00500743 0.00498467 0.00500103
0.00417957 0.00111008 0.00999929
0.00528435 0.00206919 0.00790464
0.00418597 -1.58464e-05 0.00831722
0.00201421 0.0020017 0.00803346
0.00429001 0.00252602 0.00999947
0.00698762 0.00643046 0.00694847
0.00644235 0.00616855 0.00518511
0.00226355 0.00218335 0.00514613
0 0.00143586 0.00417514
0.00159809 0.00346584 0.00403684
0.00685512 0.00317661 0.00316547
0.0077597 0.00219045 0.00506769
0 0.00270918 0.00154168
0.004165 0.00142018 2.30259e-06
0.00501593 0.00217739 0.00220117
0.00397406 0.0035215 0.00160519
0.00134511 -9.32708e-07 0.00406004
0.00418337 -1.62932e-05 0.00169073
0.00264054 0.00694992 9.37028e-07
0.00194812 0.00805217 0.00194509
0.00410733 0.00624364 0.00164717
0.00804748 0.00796325 0.00799899
0.00799105 0.00479353 0.00802409
0.00842654 0.00605495 0.00595136
0.0100659 0.00879018 0.00419787
0.00762053 0.00761518 0.00496681
0.00863134 0.00995193 0.00417084
0.00802843 0.00794795 0.00202161
0.00354144 0.00303257 0.00695977
0.00444546 0.00365578 0.00832446
0.00389342 0.00159423 0.00596954
0.00503079 0.00765976 0.00767717
0.00199785 0.00800714 0.00798944
0.00284631 0.00999429 0.00712685
0.00393868 0.00839411 0.00595804
0 0.00695361 0.00262895
0.00165256 0.00623863 0.00408791
0 0.0040177 0.00850214
0.00232176 0.00498463 0.00766146
0.00143661 0.00417401 0.0099998
0.00720883 0.00710012 0.00999831
0.00614174 0.00595837 0.00841806
0.00206099 0.00794084 0.00474179
0.00305606 0.00694094 0.00646774
0.00159222 0.0060779 0.00592596
0.010033 0.0057498 0.00831772
0 0.00718191 0.00711644
0.00159133 0.0057728 8.44008e-08
0 0.00577432 0.00158701
0.0100473 0.00712305 0.00711792
0.00287226 0.00334682 0.00999974
0.00999366 0.00137348 0.0041806
0.00805422 0.00191829 0.00198522
0.00841524 0.00347669 0.00400319
0.0037276 0.00164209 0.00412907
0.00151796 0.0099996 0.00581483
0.00280574 -7.3393e-06 0.00712796
0.00612467 0.0041588 0.00837661
0.0100503 0.00721466 0.0042003
0.00853557 -4.98941e-05 0.00417266
0.00335156 0.00286585 1.41609e-06
0.00270065 0.00153588 0.00999978
0.00281595 -8.00071e-06 0.00283239
0.00481229 0.00518721 0.00755466
0.00316476 0.00314345 0.00316776
0 0.00849157 0.00581511
0.00487669 0.0036615 0.0037879
0.00154087 0.00270839 8.80413e-09
0.0058313 0.00830359 0.00999818
0.00602635 0.00997523 0.00850552
0.00424171 0.00998687 0.00831744
0.00403893 0.00849207 0.00999846
0.010061 0.00843191 0.00581769
0.00316133 0.00683124 0.00315135
0 0.00748929 0.00137438
0.00138044 0.00748902 -8.77757e-08
0 0.00287343 0.00335182
0 0.00580816 0.00831736
0 0.00429792 0.00253898
0.00254369 0.00429411 8.68153e-07
0.00143812 0.00581892 0.00999981
0.00519762 0.0064601 0.00640077
0.00361673 0.00650648 0.00823374
0.00694197 0.00259505 0.00999904
0.00801028 0.00191582 0.00803581
0.00694489 -3.64815e-05 0.00308636
0.00600788 0.00163779 0.00361585
0.0100081 0.00281266 0.00335817
0 0.00140616 0.00256446
0.00641013 0.00820197 0.00642136
0.00580631 0.00140872 4.63025e-06
0.0060399 0.00352747 0.00160744
0.00317834 0.00999238 0.00582534
0.00862447 0.00995228 0.00583488
0.00255805 0.0013997 9.65309e-07
0.00595211 -2.85489e-05 0.00149912
0.00632 0.00826215 0.00361968
0.00852911 -4.95086e-05 0.00583601
0.00619164 0.00164538 0.00636606
0.00140408 0.00256394 0.00999989
0.00715582 0.0071494 5.46283e-06
0.00519659 0.00767274 0.0021714
0.00596625 0.0060721 0.0016057
0 0.00686719 0.00578184
0.00999475 0.0013434 0.0025717
0.00177592 0.00360932 0.00640791
0.0100639 0.00842652 0.00262984
0.00844433 0.00614561 0.00413653
0.0060316 0.00997371 0.00149717
0.00694075 -3.59946e-05 0.00692707
0.00999241 0.00137344 0.00582301
0.00840302 0.00352892 0.00606304
0.00150182 -1.31779e-06 0.00581514
0 0.0013659 0.00748679
0.0013636 -1.15429e-06 0.00752881
0.010045 0.0068082 0.00578466
0.00585759 0.00846825 4.09177e-06
0 0.0075208 0.00859127
0.00137004 0.0074863 0.00999971
0.00425597 0.0081939 0.00362899
0.00865644 0.00995193 0.00751237
0.0100615 0.00857082 0.00752711
0.00575679 0.00156197 0.00999895
0.00726402 0.00415537 0.00999889
0 0.0057735 0.00666667
0.0013777 0.00999945 0.00752891
0 0.00863025 0.00752641
0.00856374 -5.08835e-05 0.00251392
0.0100485 0.00689389 0.00263523
0.00849513 0.00629744 0.00216846
0.00853362 0.00578011 0.00999867
0.00747109 0.00133501 0.00999884
0.00856088 -5.01797e-05 0.00751254
0.0099906 0.00130397 0.00748823
0 0.00143551 0.00581971
0.00594799 -2.77857e-05 0.00850523
0.00419059 -1.65114e-05 0.00340155
0.00795246 0.00466762 0.00203991
0.0100225 0.00423811 0.00254582
0.00426116 0.0099862 0.00666615
0.00285743 0.0099943 0.00283211
0.0013072 -1.04387e-06 0.0024184
0 0.00727418 0.00419576
0.0100335 0.00571502 0.00666855
0.00703169 0.00996574 0.0030846
0.00755206 0.00860066 0.00999835
0 0.00574334 0.00336387
0 0.0043297 0.00416652
0.00688737 0.00575572 0.00999882
0.0100067 0.00296228 0.00691714
0.00420166 -1.62072e-05 0.00666677
0.00249638 0.00999512 0.00861117
0.00747487 0.0013254 6.56058e-06
0.00579444 0.00664663 0.00999844
0.0100498 0.00746215 0.00859102
0.00864964 0.00750861 0.00999846
0.00691593 0.00298936 6.02282e-06
0.00337535 0.00573778 1.77251e-06
0.00758077 0.00859274 5.75943e-06
0.00757943 0.00996031 0.00139206
0.00581143 0.00684592 4.13485e-06
0.00700352 0.00634054 0.00303695
0.00748917 -4.19752e-05 0.00139406
0.0028883 0.0049953 0.00999956
0.00433911 0.00582368 0.00999893
0.00433034 0.0041561 0.0099992
0.00757375 0.00996162 0.0086153
0.00246175 -6.29641e-06 0.00861152
0.0100357 0.00568424 0.0033697
0 0.00302218 0.00691532
0.0100152 0.00395902 0.00850253
0.00851727 0.00397128 7.67862e-06
0.0100082 0.00264763 0.00154972
0 0.00244495 0.00857025
0.00245789 0.00856595 0.00999912
0.00748431 -4.11641e-05 0.00861495
0.00848117 0.00257802 0.00999876
0.00886143 0.00414619 0.00999876
0.00571563 0.00997669 0.00583335
0.00521249 0.00756659 0.00503299
0.00568906 0.00997654 0.00421636
0.00702711 0.00996651 0.00692633
0.00303216 0.00691174 0.00999908
0.0041736 0.00431932 2.89191e-06
0.00281888 -8.43606e-06 0.00440527
0.00313395 -9.43867e-06 0.00582605
0.010023 0.004135 0.00113341
0.00366092 0.00832825 0.00158983
0.0100214 0.0042702 0.00417162
0.00669089 0.00574523 5.48346e-06
0.00865997 0.0099511 0.00251168
0 0.00848692 0.00262374
0.00135956 0.00999949 0.00405969
0 0.00885053 0.00419359
0.00422585 0.00883707 2.55803e-06
0.00424203 0.00998573 0.00168936
0.005008 0.00477673 0.00238136
0.00723449 0.00448762 6.24528e-06
0.00561518 -2.62543e-05 0.00421806
0.00564182 -2.6161e-05 0.00583423
0.00132135 0.00999948 0.00241786
0.00857068 0.00239648 7.89256e-06
0.0100209 0.00446297 0.00722096
0.00717323 0.00996495 0.00500162
0.00573947 0.00334272 0.00999906
0.00244436 -6.30306e-06 0.00135747
0.01 0.00238428 0.00857083
0.00239882 0.00478842 0.0050001
0.00584245 0.00430784 4.92082e-06
0.00834907 0.00576432 7.06243e-06
0.00552279 0.00997853 0.00722027
0.01002 0.00427097 0.00583645
0.0054491 0.00997803 0.00277725
0.00708546 -3.71978e-05 0.00500312
0.00285902 0.00999437 0.00440439
0 0.00452174 0.00721958
0.00453983 0.00720828 0.00999861
0.00545042 -2.43961e-05 0.00722
0.0036099 0.00506699 0.00359709
0.00428719 0.00998596 0.00500835
0.00422606 -1.65339e-05 0.00500956
0.00367749 0.00521002 0.00617478
0 0.005744 0.00499998
0 0.00433013 0.00583333
0.00501758 0.0057296 3.87616e-06
0.0050032 0.00632471 0.00355543
0.00537659 -2.46931e-05 0.00277923
0.0100344 0.00568537 0.00500382
0.00370267 0.00640098 0.00484417
0.00575244 0.00498103 0.00999888
0.0100378 0.00571469 0.00159465
0 0.00666667 0
0.00864106 0.00747439 6.92581e-06
0.00331728 -1.26878e-05 2.97881e-06
0 0.01 0.00666667
0.0050389 0.00998103 0.00999903
0 0.00288419 0.00499914
0.0100552 0.00742923 0.00138204
0.0100485 0.00660672 8.52043e-06
0 0.005 0.01
0.00499669 0.0028663 3.58129e-06
0 0.005 0
0.00998094 -6.35139e-05 0.00334008
0.0100759 0.00993792 0.00666795
0.00421874 0.00726339 2.67809e-06
0.0100065 0.00282405 0.00500343
0.00497877 -2.31191e-05 4.57995e-06
0 0 0.00666667
0.00379819 0.00360849 0.0052267
0.00497385 -2.21627e-05 0.00999837
0.00997842 -6.29309e-05 0.00666892
0 0 0.005
0.00885382 0.00994887 0.00122606
0.0100684 0.00871867 0.00122753
0.00997954 -6.30709e-05 0.00500451
0.0100322 0.00493966 8.957e-06
0.00121747 0.00121849 -1.10105e-07
0 0.00122008 0.00122008
0 0.00333333 0.01
0 0.00666667 0.01
0.00884322 0.00873031 6.7901e-06
0.0100786 0.0099372 0.00333814
0.00425118 0.00998585 0.00340017
0.0100406 0.00660855 0.00999903
0 0.00333333 0
0 0.00122008 0.00877992
0.00121466 -1.58868e-06 0.00877935
0.00121703 0.00121909 0.0100001
0.00884737 0.00994998 0.00877949
0.00122508 0.00877909 0.00999967
0 0.00877992 0.00877992
0.0100624 0.00872016 0.00877962
0.0067272 0.0099674 4.08492e-06
0.00999406 0.0011567 0.00122873
0.00122751 0.009999 0.00878034
0.00883509 0.00873169 0.00999861
0.0100241 0.00494157 0.00999915
0 0 0.00333333
0.00664229 -3.5159e-05 6.58446e-06
0.00875703 -5.32062e-05 0.00122831
0.00120631 -1.527e-06 0.00121265
0 0.00877992 0.00122008
0.00122693 0.00877914 1.37133e-07
0.00121995 0.00999911 0.00121121
0.00998819 0.00115784 0.00877996
0.00876191 0.00116893 0.00999865
0.0066364 -3.41687e-05 0.0099979
0.00876953 0.00116778 8.34055e-06
0.0087514 -5.22337e-05 0.00877891
0.010016 0.00327215 9.25756e-06
0.00335904 0.00999009 0.00999987
0.00248052 0.00999547 0.00135672
0.00671974 0.00996874 0.00999915
0.0100079 0.00327428 0.00999919
0 0.01 0.005
0.0026417 0.00848243 1.04369e-06
0.0100771 0.00993754 0.00500327
0 0.01 0.00333333
0 0.00166667 0
0.00998241 -6.41462e-05 0.00167531
0 0.00166667 0.01
0 0.00833333 0
0.0100653 0.00827222 8.15248e-06
0.00997732 -6.32651e-05 0.00833346
0.0100803 0.00993679 0.00167343
0.0100748 0.00993804 0.00833348
0.00167893 0.00999683 0.00999992
0 0.01 0.00833333
0.00840588 0.00995258 5.95496e-06
0.00831083 -4.98041e-05 8.17725e-06
0.00830363 -4.88779e-05 0.00999819
0.00839737 0.00995367 0.00999889
0 0 0.00833333
0.0100574 0.00827402 0.00999889
0.00165758 -4.14817e-06 6.76413e-07
0 0 0.00166667
0.00336543 0.00999068 1.47518e-06
0.00999182 0.00160456 0.00999908
0.00999976 0.00160338 9.44086e-06
0.00165738 -3.4859e-06 0.0100001
0.00168121 0.00999761 3.5448e-07
0 0.01 0.00166667
0.0100739 0.00993802 0.00999917
0 0 0.01
0.0100821 0.00993657 7.52044e-06
0.009976 -6.3521e-05 0.00999847
0 0.01 0.01
0.00998378 -6.46726e-05 9.89606e-06
0 0.01 0
0 0 0
0.00504664 0.00997991 2.77823e-06
0.00331414 -1.13822e-05 0.00999877
0 0.00833333 0.01

CELLS 343 686
1 0
1 1
1 2
1 3
1 4
1 5
1 6
1 7
1 8
1 9
1 10
1 11
1 12
1 13
1 14
1 15
1 16
1 17
1 18
1 19
1 20
1 21
1 22
1 23
1 24
1 25
1 26
1 27
1 28
1 29
1 30
1 31
1 32
1 33
1 34
1 35
1 36
1 37
1 38
1 39
1 40
1 41
1 42
1 43
1 44
1 45
1 46
1 47
1 48
1 49
1 50
1 51
1 52
1 53
1 54
1 55
1 56
1 57
1 58
1 59
1 60
1 61
1 62
1 63
1 64
1 65
1 66
1 67
1 68
1 69
1 70
1 71
1 72
1 73
1 74
1 75
1 76
1 77
1 78
1 79
1 80
1 81
1 82
1 83
1 84
1 85
1 86
1 87
1 88
1 89
1 90
1 91
1 92
1 93
1 94
1 95
1 96
1 97
1 98
1 99
1 100
1 101
1 102
1 103
1 104
1 105
1 106
1 107
1 108
1 109
1 110
1 111
1 112
1 113
1 114
1 115
1 116
1 117
1 118
1 119
1 120
1 121
1 122
1 123
1 124
1 125
1 126
1 127
1 128
1 129
1 130
1 131
1 132
1 133
1 134
1 135
1 136
1 137
1 138
1 139
1 140
1 141
1 142
1 143
1 144
1 145
1 146
1 147
1 148
1 149
1 150
1 151
1 152
1 153
1 154
1 155
1 156
1 157
1 158
1 159
1 160
1 161
1 162
1 163
1 164
1 165
1 166
1 167
1 168
1 169
1 170
1 171
1 172
1 173
1 174
1 175
1 176
1 177
1 178
1 179
1 180
1 181
1 182
1 183
1 184
1 185
1 186
1 187
1 188
1 189
1 190
1 191
1 192
1 193
1 194
1 195
1 196
1 197
1 198
1 199
1 200
1 201
1 202
1 203
1 204
1 205
1 206
1 207
1 208
1 209
1 210
1 211
1 212
1 213
1 214
1 215
1 216
1 217
1 218
1 219
1 220
1 221
1 222
1 223
1 224
1 225
1 226
1 227
1 228
1 229
1 230
1 231
1 232
1 233
1 234
1 235
1 236
1 237
1 238
1 239
1 240
1 241
1 242
1 243
1 244
1 245
1 246
1 247
1 248
1 249
1 250
1 251
1 252
1 253
1 254
1 255
1 256
1 257
1 258
1 259
1 260
1 261
1 262
1 263
1 264
1 265
1 266
1 267
1 268
1 269
1 270
1 271
1 272
1 273
1 274
1 275
1 276
1 277
1 278
1 279
1 280
1 281
1 282
1 283
1 284
1 285
1 286
1 287
1 288
1 289
1 290
1 291
1 292
1 293
1 294
1 295
1 296
1 297
1 298
1 299
1 300
1 301
1 302
1 303
1 304
1 305
1 306
1 307
1 308
1 309
1 310
1 311
1 312
1 313
1 314
1 315
1 316
1 317
1 318
1 319
1 320
1 321
1 322
1 323
1 324
1 325
1 326
1 327
1 328
1 329
1 330
1 331
1 332
1 333
1 334
1 335
1 336
1 337
1 338
1 339
1 340
1 341
1 342

CELL_TYPES 343
1
1
1
1
1
1
1
1
1
1
1
1
1
1
1
1
1
1
1
1
1
1
1
1
1
1
1
1
1
1
1
1
1
1
1
1
1
1
1
1
1
1
1
1
1
1
1
1
1
1
1
1
1
1
1
1
1
1
1
1
1
1
1
1
1
1
1
1
1
1
1
1
1
1
1
1
1
1
1
1
1
1
1
1
1
1
1
1
1
1
1
1
1
1
1
1
1
1
1
1
1
1
1
1
1
1
1
1
1
1
1
1
1
1
1
1
1
1
1
1
1
1
1
1
1
1
1
1
1
1
1
1
1
1
1
1
1
1
1
1
1
1
1
1
1
1
1
1
1
1
1
1
1
1
1
1
1
1
1
1
1
1
1
1
1
1
1
1
1
1
1
1
1
1
1
1
1
1
1
1
1
1
1
1
1
1
1
1
1
1
1
1
1
1
1
1
1
1
1
1
1
1
1
1
1
1
1
1
1
1
1
1
1
1
1
1
1
1
1
1
1
1
1
1
1
1
1
1
1
1
1
1
1
1
1
1
1
1
1
1
1
1
1
1
1
1
1
1
1
1
1
1
1
1
1
1
1
1
1
1
1
1
1
1
1
1
1
1
1
1
1
1
1
1
1
1
1
1
1
1
1
1
1
1
1
1
1
1
1
1
1
1
1
1
1
1
1
1
1
1
1
1
1
1
1
1
1
1
1
1
1
1
1
1
1
1
1
1
1
1
1
1
1
1
1
1
1
1
1
1
1
1
1
1
1
1
1
1
1
1
1
1
1

POINT_DATA 343
FIELD FieldData 8

NodeID_(#) 1 343 int
0
1
2
3
4
5
6
7
8
9
10
11
12
13
14
15
16
17
18
19
20
21
22
23
24
25
26
27
28
29
30
31
32
33
34
35
36
37
38
39
40
41
42
43
44
45
46
47
48
49
50
51
52
53
54
55
56
57
58
59
60
61
62
63
64
65
66
67
68
69
70
71
72
73
74
75
76
77
78
79
80
81
82
83
84
85
86
87
88
89
90
91
92
93
94
95
96
97
98
99
100
101
102
103
104
105
106
107
108
109
110
111
112
113
114
115
116
117
118
119
120
121
122
123
124
125
126
127
128
129
130
131
132
133
134
135
136
137
138
139
140
141
142
143
144
145
146
147
148
149
150
151
152
153
154
155
156
157
158
159
160
161
162
163
164
165
166
167
168
169
170
171
172
173
174
175
176
177
178
179
180
181
182
183
184
185
186
187
188
189
190
191
192
193
194
195
196
197
198
199
200
201
202
203
204
205
206
207
208
209
210
211
212
213
214
215
216
217
218
219
220
221
222
223
224
225
226
227
228
229
230
231
232
233
234
235
236
237
238
239
240
241
242
243
244
245
246
247
248
249
250
251
252
253
254
255
256
257
258
259
260
261
262
263
264
265
266
267
268
269
270
271
272
273
274
275
276
277
278
279
280
281
282
283
284
285
286
287
288
289
290
291
292
293
294
295
296
297
298
299
300
301
302
303
304
305
306
307
308
309
310
311
312
313
314
315
316
317
318
319
320
321
322
323
324
325
326
327
328
329
330
331
332
333
334
335
336
337
338
339
340
341
342

Component_(#) 1 343 int
0
0
0
0
0
0
0
0
0
0
0
0
0
0
0
0
0
0
0
0
0
0
0
0
0
0
0
0
0
0
0
0
0
0
0
0
0
0
0
0
0
0
0
0
0
0
0
0
0
0
0
0
0
0
0
0
0
0
0
0
0
0
0
0
0
0
0
0
0
0
0
0
0
0
0
0
0
0
0
0
0
0
0
0
0
0
0
0
0
0
0
0
0
0
0
0
0
0
0
0
0
0
0
0
0
0
0
0
0
0
0
0
0
0
0
0
0
0
0
0
0
0
0
0
0
0
0
0
0
0
0
0
0
0
0
0
0
0
0
0
0
0
0
0
0
0
0
0
0
0
0
0
0
0
0
0
0
0
0
0
0
0
0
0
0
0
0
0
0
0
0
0
0
0
0
0
0
0
0
0
0
0
0
0
0
0
0
0
0
0
0
0
0
0
0
0
0
0
0
0
0
0
0
0
0
0
0
0
0
0
0
0
0
0
0
0
0
0
0
0
0
0
0
0
0
0
0
0
0
0
0
0
0
0
0
0
0
0
0
0
0
0
0
0
0
0
0
0
0
0
0
0
0
0
0
0
0
0
0
0
0
0
0
0
0
0
0
0
0
0
0
0
0
0
0
0
0
0
0
0
0
0
0
0
0
0
0
0
0
0
0
0
0
0
0
0
0
0
0
0
0
0
0
0
0
0
0
0
0
0
0
0
0
0
0
0
0
0
0
0
0
0
0
0
0
0
0
0
0
0
0
0
0
0
0
0
0
0
0
0
0
0
0

NodalMass_(kg) 1 343 double
3.15563e-06
1.41304e-05
2.20912e-06
1.71484e-05
8.42e-06
9.09306e-06
9.93033e-06
7.52198e-06
6.81096e-06
5.58223e-06
3.10888e-06
1.07575e-05
4.87011e-06
1.64955e-05
3.0246e-06
8.05984e-06
6.703e-06
1.0877e-05
4.18978e-06
8.16106e-06
6.14143e-06
1.17902e-05
2.23114e-06
4.25176e-06
1.09915e-05
7.41467e-06
4.21871e-06
3.92484e-06
3.08766e-06
1.31268e-05
7.72627e-06
1.65404e-05
1.19037e-05
7.29666e-06
3.81683e-06
1.11001e-05
3.81317e-06
1.39137e-05
6.37414e-06
8.00975e-06
7.6712e-06
1.18847e-05
1.6399e-05
2.78633e-06
8.93599e-06
2.58087e-06
7.57362e-06
4.23241e-06
1.31286e-05
3.80168e-06
2.7746e-06
7.16776e-06
1.21307e-05
5.11765e-06
8.19728e-06
4.58094e-06
2.79503e-06
3.26126e-06
4.12443e-06
2.11915e-06
3.35177e-06
3.61669e-06
1.56838e-05
7.33679e-06
8.24695e-06
5.00369e-06
2.82625e-06
7.20276e-06
3.26815e-06
4.18751e-06
2.02785e-06
2.42152e-06
3.11835e-06
5.97459e-06
5.87101e-06
4.09374e-06
5.45463e-06
2.28825e-06
4.49759e-06
4.38192e-06
4.50892e-06
4.39234e-06
4.27273e-06
5.32031e-06
1.53201e-06
2.38869e-06
2.02885e-06
4.38798e-06
3.17972e-06
3.14298e-06
4.61567e-06
5.87645e-06
8.18088e-06
2.48341e-06
1.53815e-05
3.49683e-06
7.35227e-06
2.01314e-06
2.0408e-06
7.98183e-06
4.41293e-06
7.1389e-06
1.20123e-06
5.03343e-06
1.61257e-06
4.12601e-06
8.73748e-06
4.37849e-06
7.97173e-06
2.13557e-06
3.38137e-06
9.48623e-06
7.40262e-06
1.80226e-06
2.10222e-06
7.98889e-06
1.87983e-06
7.44814e-06
4.19782e-06
2.37156e-06
4.31705e-06
6.06441e-06
4.30905e-06
2.16843e-06
1.8986e-06
1.81294e-06
3.89762e-06
2.44299e-06
1.65628e-06
8.01374e-06
1.64513e-06
2.3931e-06
3.01363e-06
2.99431e-06
1.36541e-06
1.87293e-06
2.09622e-06
1.94762e-06
1.87618e-06
6.37913e-06
4.58628e-06
2.02767e-06
1.61999e-06
2.41284e-06
3.8865e-06
4.44973e-06
2.29839e-06
1.17349e-05
3.11811e-06
1.354e-06
3.45063e-06
1.81846e-06
2.9382e-06
1.37381e-06
2.41464e-06
2.10451e-06
2.63927e-06
2.14166e-06
1.7943e-06
3.19976e-06
1.36989e-06
2.43489e-06
2.08158e-06
1.3601e-06
2.17203e-06
1.89924e-06
3.16996e-06
2.6119e-06
2.37677e-06
1.60225e-06
1.90684e-06
5.49206e-06
1.87878e-06
3.14313e-06
2.97301e-06
1.18454e-06
1.89263e-06
2.04166e-06
2.73572e-06
2.42405e-06
3.23083e-06
3.19752e-06
3.2142e-06
1.94492e-06
1.61196e-06
1.86876e-06
3.22435e-06
2.1114e-06
2.96917e-06
6.15288e-06
2.3097e-06
2.39729e-06
2.38029e-06
2.64508e-06
1.66557e-06
1.82377e-06
2.06583e-06
5.73271e-06
2.08467e-06
2.18324e-06
2.43522e-06
3.1188e-06
3.17316e-06
2.05447e-06
1.9592e-06
3.05718e-06
6.44327e-06
2.08796e-06
2.72615e-06
2.15709e-06
1.86812e-06
2.0028e-06
2.10999e-06
2.88994e-06
2.3222e-06
2.3979e-06
1.97629e-06
6.4127e-06
2.16225e-06
3.29198e-06
2.10223e-06
2.66566e-06
1.94415e-06
2.91865e-06
2.58116e-06
2.11703e-06
2.09534e-06
1.91719e-06
7.06046e-06
2.25203e-06
2.06378e-06
6.28159e-06
2.12147e-06
2.90924e-06
2.12921e-06
6.4487e-06
1.41701e-06
2.0682e-06
6.58062e-06
2.52584e-06
2.39732e-06
7.42191e-07
2.22368e-06
7.06751e-07
7.00657e-07
8.93749e-07
2.53536e-06
2.26535e-06
1.33607e-06
7.84725e-07
2.32303e-06
6.06694e-07
6.68276e-07
6.84307e-07
2.51242e-06
2.31629e-06
7.8367e-07
6.80839e-07
6.22692e-06
6.7471e-07
6.65305e-07
7.01158e-07
1.8232e-06
1.90695e-06
6.86722e-07
7.04792e-07
1.86445e-06
2.28572e-06
6.8045e-07
7.16005e-07
1.82373e-06
6.01079e-07
2.02791e-06
7.4579e-07
5.74423e-07
1.80052e-06
1.454e-06
2.2702e-06
1.80636e-06
2.15356e-06
1.79089e-06
1.79456e-06
6.8231e-07
2.24737e-06
1.45239e-06
1.79556e-06
6.97875e-07
6.24265e-07
6.62717e-07
1.44627e-06
1.40138e-06
2.15258e-06
1.82851e-06
1.3994e-06
1.43932e-06
2.19226e-06
6.97732e-07
1.77726e-06
1.79162e-06
6.54258e-07
7.3397e-07
2.34895e-06
7.10392e-07
6.56982e-07
6.26314e-07
2.18926e-06
6.12493e-07
6.03901e-07
5.92831e-07
5.12031e-07
5.11667e-07
4.9467e-07
4.97016e-07
4.96269e-07
5.33079e-07
4.94191e-07
4.97855e-07
4.86862e-07
4.90626e-07
4.94649e-07
4.94954e-07
4.91922e-07
4.89615e-07
4.96354e-07
4.95189e-07
4.82188e-07
1.10854e-06
5.3299e-07
5.44763e-07
5.36655e-07
5.15417e-07
5.01772e-07
5.53774e-07
5.53774e-07
5.53774e-07
5.53774e-07
5.53774e-07
5.53774e-07
5.50785e-07
5.50785e-07
7.45291e-07
7.11668e-07
4.9897e-07

NodalForce_(N) 3 343 double
4.64476e-07 3.98811e-07 -7.58893e-08
2.17023e-07 5.95394e-06 -1.87613e-06
0.00104925 0.000997249 0.000866075
2.26299e-05 7.29335e-06 -1.64507e-06
4.53042e-05 3.53876e-05 -7.02722e-06
3.2871e-05 3.26424e-05 -7.4837e-06
2.34781e-05 7.92678e-05 -1.91035e-05
8.86802e-06 3.92613e-05 -9.87125e-06
3.92523e-05 4.66539e-05 -1.03536e-05
6.72442e-06 1.74539e-05 -4.29622e-06
2.14679e-05 1.08503e-05 -1.80675e-06
7.47213e-05 5.00118e-05 -9.01465e-06
3.97333e-05 1.79541e-05 -2.03211e-06
3.26054e-05 7.00493e-06 -2.46612e-06
1.5896e-05 8.97282e-06 -2.08384e-06
-2.3125e-06 5.09045e-05 -1.27301e-05
-3.99752e-06 3.58461e-05 -8.76426e-06
2.02043e-05 6.45764e-06 -9.70366e-07
-0.00280202 0.00163632 -0.000540867
5.93081e-06 1.46186e-06 1.20802e-07
2.65698e-05 4.26095e-05 -9.89398e-06
9.01072e-05 0.000107839 -2.35055e-05
-0.00127245 -0.00345497 -0.00190784
1.64748e-05 1.41779e-05 -2.46197e-06
4.9868e-05 4.64316e-05 -1.2373e-05
1.04271e-05 1.53038e-05 -5.52358e-06
7.76591e-06 8.14093e-07 -1.38071e-07
2.49004e-05 1.38992e-05 -3.07108e-06
-5.06574e-06 1.9495e-06 -1.00504e-06
-1.49059e-05 3.36148e-06 -2.4266e-06
-1.10855e-05 1.29084e-05 -6.44441e-06
-4.80962e-05 0.00014253 -3.62474e-05
4.51656e-05 0.000103014 -2.45495e-05
1.41397e-06 6.87154e-05 -1.664e-05
-2.39967e-05 4.9425e-05 -1.23373e-05
-4.10957e-05 8.48993e-05 -2.09845e-05
-3.41291e-05 3.82828e-05 -9.57306e-06
-8.14139e-05 0.00011685 -3.35851e-05
1.90196e-05 1.07367e-05 -2.10453e-06
2.95211e-05 2.06349e-05 -5.71542e-06
3.98554e-05 2.06468e-05 -3.0994e-06
-2.08006e-05 4.02738e-05 -1.08897e-05
-6.96507e-06 6.92717e-06 -1.19012e-06
-8.37771e-06 3.3912e-06 -4.89836e-07
-2.32337e-05 1.90474e-05 -4.01815e-06
0.00206186 0.00187734 -0.000768497
-9.72094e-07 2.2271e-06 -6.78185e-07
-0.000755369 0.00233484 -9.7167e-05
7.67759e-06 6.85201e-06 -1.54331e-06
2.62241e-06 1.01177e-06 -6.07129e-08
-9.67593e-07 1.93743e-05 -4.87673e-06
7.43431e-06 3.49523e-05 -9.44121e-06
-8.58028e-06 3.84434e-06 -1.47838e-06
-2.16014e-06 4.59247e-06 -1.10257e-06
8.48524e-07 2.00727e-06 -5.42348e-07
1.07789e-05 5.96775e-05 -1.40667e-05
0.00174958 0.00123 0.00141898
-1.44803e-06 7.85629e-07 -2.06131e-07
-0.000267 0.000193678 -0.000806335
-2.57213e-06 2.74328e-05 -6.67226e-06
8.39621e-06 3.82794e-06 -1.175e-06
3.58023e-05 5.15629e-05 -1.12647e-05
0.000108999 0.000154037 -3.52475e-05
3.46966e-05 7.33275e-05 -1.72344e-05
3.7784e-05 2.05537e-05 -3.26388e-06
-6.24469e-06 4.79303e-07 -2.73688e-07
1.566e-05 4.82952e-06 -5.43015e-07
3.0602e-05 3.66803e-05 -9.00699e-06
-9.44667e-06 4.20161e-05 -1.04102e-05
5.19102e-05 4.81794e-05 -9.98634e-06
2.4529e-06 3.0296e-06 -7.36714e-07
9.48594e-06 3.32186e-06 -7.39104e-07
1.53189e-05 5.46628e-06 -5.01766e-07
1.10893e-05 1.6753e-05 -4.72322e-06
1.0749e-05 6.86647e-06 -1.54775e-06
0.00313206 0.00143092 0.000640034
1.47081e-05 1.76149e-05 -4.45659e-06
1.37447e-06 2.6685e-07 -4.09036e-08
-9.40274e-06 2.20586e-05 -5.53507e-06
-2.44258e-05 2.34502e-05 -6.63549e-06
-1.71537e-05 1.28103e-05 -3.47184e-06
-6.58138e-06 1.1436e-05 -2.53358e-06
-1.99727e-05 5.53293e-05 -1.34999e-05
-4.70284e-06 4.97451e-06 -1.96684e-06
0.000140365 -0.00211321 0.000960124
-2.0211e-06 2.29307e-08 -3.89033e-08
0.000186523 -0.00137304 0.000917694
-0.00203443 -0.00063702 5.8507e-05
-0.000727854 0.000827412 -0.000321463
-7.71841e-07 2.12827e-06 -7.42452e-07
1.80097e-06 9.57816e-07 -1.5474e-07
-2.85847e-06 1.96785e-05 -4.98078e-06
2.46603e-06 1.05739e-05 -3.58679e-06
2.06656e-05 1.84509e-05 -3.94697e-06
0.000151183 0.000150679 -3.0073e-05
3.64983e-05 2.8886e-05 -5.94747e-06
4.98435e-05 4.40761e-05 -9.66974e-06
1.28165e-05 2.7639e-05 -6.42548e-06
-0.000131334 0.000423325 9.32192e-05
-2.80847e-05 4.47302e-05 -1.03269e-05
2.5324e-05 2.56344e-05 -5.50866e-06
2.00545e-05 3.80292e-05 -1.07053e-05
-4.08802e-06 1.9184e-06 -4.92124e-07
-4.07312e-05 5.08715e-05 -1.2387e-05
3.57035e-06 2.15767e-06 -3.46391e-07
3.65874e-05 2.62175e-05 -5.99545e-06
-4.23099e-05 4.70727e-05 -1.2776e-05
5.76322e-05 5.03123e-05 -1.00133e-05
6.40986e-05 5.01341e-05 -9.18105e-06
2.58301e-06 2.86446e-07 -6.15745e-08
-1.67689e-05 2.2387e-05 -7.16763e-06
-3.74418e-05 3.3343e-05 -1.09769e-05
-1.4561e-05 3.24315e-05 -1.1218e-05
-0.00184087 -0.000585029 -0.0018904
1.93532e-05 3.00124e-05 -6.63751e-06
7.53113e-06 2.38051e-06 -7.36254e-07
-1.18521e-05 2.41777e-05 -6.37811e-06
-6.7663e-06 7.06426e-05 -1.75586e-05
-3.57139e-05 2.19588e-05 -6.93946e-06
2.89826e-05 1.9814e-05 -3.27814e-06
4.62275e-05 6.15357e-05 -1.32074e-05
3.45448e-05 6.03239e-05 -1.38901e-05
8.78634e-06 1.28091e-06 -6.82315e-08
0.000387746 0.000323674 0.000457467
3.61645e-06 5.38965e-07 2.99496e-08
-2.17341e-06 2.33707e-05 -5.59805e-06
-2.58111e-05 1.77499e-05 -6.29073e-06
-0.000269491 -0.00134381 -0.00110577
1.08454e-07 2.85911e-07 -5.44451e-08
-2.58343e-05 1.94162e-05 -4.78266e-06
-1.19705e-05 1.69915e-05 -4.22324e-06
-9.94687e-06 3.10977e-05 -7.56253e-06
2.71344e-05 1.74273e-05 -3.29262e-06
1.66957e-05 2.19574e-05 -5.25026e-06
0.0015286 -0.00215645 -0.000136484
-1.83563e-06 2.31195e-07 -1.66319e-07
-3.67862e-05 0.000415418 -0.000333558
2.26828e-05 2.26719e-05 -4.8641e-06
-5.55163e-06 2.40839e-05 -6.21591e-06
-1.42565e-05 6.09698e-05 -1.62229e-05
1.22995e-05 4.47312e-05 -1.07212e-05
2.2599e-05 1.84904e-05 -3.50591e-06
2.27563e-05 1.90011e-05 -3.36031e-06
2.82695e-05 3.45467e-05 -7.16354e-06
-0.00217969 0.000796208 1.62684e-05
5.13371e-05 2.88775e-05 -4.35201e-06
1.66896e-05 8.49436e-06 -1.35768e-06
1.32801e-05 0.000102445 -2.62853e-05
8.92435e-06 4.1644e-05 -9.91518e-06
-6.31271e-06 3.94483e-06 -8.0162e-07
-1.29023e-05 3.85153e-06 -1.11575e-06
2.92685e-06 3.88983e-07 -1.05727e-07
-0.00087638 -0.00136509 -4.82845e-05
2.29735e-06 1.78881e-05 -4.19668e-06
-2.07474e-05 1.69727e-05 -4.54765e-06
-6.5007e-06 1.6947e-05 -4.2426e-06
0.000946873 -0.00175958 0.000519042
-0.00300419 0.00059386 0.00124736
4.03568e-06 1.1308e-05 -3.02936e-06
2.50754e-05 4.36768e-05 -9.67569e-06
1.11012e-05 5.12512e-06 -5.79841e-07
-5.81548e-06 2.5468e-06 -6.19803e-07
1.44451e-05 1.85809e-05 -4.10923e-06
7.97988e-07 6.04454e-06 -1.64125e-06
-2.70043e-06 2.81777e-05 -6.69051e-06
-1.85508e-06 1.89328e-05 -4.66594e-06
1.1096e-05 2.24797e-05 -5.95989e-06
-3.48757e-06 2.55788e-06 -1.44421e-06
-1.86595e-05 1.79223e-05 -5.77643e-06
-1.54953e-05 1.28642e-05 -3.83357e-06
-7.39466e-06 8.09234e-06 -2.8906e-06
-1.10616e-05 3.50524e-05 -9.81748e-06
1.92521e-05 1.77712e-05 -3.83009e-06
4.44319e-06 2.85382e-06 -1.13479e-06
5.16728e-06 6.50157e-06 -2.17244e-06
4.10459e-06 2.79743e-06 -8.7209e-07
-1.20379e-05 1.57548e-05 -4.11793e-06
9.96204e-06 3.08042e-06 -2.78164e-07
2.40678e-07 3.57916e-05 -8.75903e-06
0.00065451 -0.00115315 -0.00107103
2.08134e-05 4.30358e-05 -9.72132e-06
5.95471e-06 3.2369e-05 -8.36617e-06
1.883e-05 4.44258e-05 -1.01232e-05
0.000574778 -0.00150245 0.00101484
-1.14862e-06 1.64926e-06 -3.65446e-07
2.51579e-05 1.80112e-05 -2.89111e-06
3.08892e-05 3.3922e-05 -7.01698e-06
1.3494e-05 2.27995e-05 -5.10237e-06
-1.79962e-05 1.45299e-05 -3.17727e-06
-1.55069e-05 2.19879e-05 -5.24583e-06
-1.556e-05 1.11596e-05 -2.66409e-06
-1.6377e-05 1.70992e-05 -3.94195e-06
8.30379e-07 1.99673e-06 -8.58476e-07
-8.78948e-09 5.35937e-06 -2.2445e-06
8.2636e-06 3.13514e-06 -4.15285e-07
1.08521e-05 3.92203e-06 -5.58162e-07
4.99065e-06 2.76939e-05 -6.73151e-06
-1.91124e-05 1.05223e-05 -4.18376e-06
7.43826e-06 2.7756e-05 -6.66586e-06
-4.43344e-06 1.27455e-05 -4.15177e-06
-2.3875e-05 2.45303e-05 -6.63166e-06
0.000776719 -0.00100142 0.000315688
-3.20321e-06 3.61538e-07 -1.37929e-07
-4.47528e-05 0.00109268 0.000472229
-1.03052e-05 5.03246e-06 -1.97134e-06
-1.87283e-05 8.57852e-06 -2.75374e-06
3.61604e-06 1.94838e-05 -6.39267e-06
1.13e-06 1.51523e-05 -4.35898e-06
2.52324e-05 1.62407e-05 -3.02695e-06
2.14995e-05 1.29402e-05 -1.91633e-06
-2.14478e-06 2.04232e-07 -5.69363e-08
1.05657e-05 2.13879e-05 -5.084e-06
9.92378e-06 2.78933e-05 -6.429e-06
-2.27387e-05 2.11635e-05 -5.08315e-06
1.36666e-05 1.11325e-05 -2.68947e-06
9.43586e-06 3.25071e-06 -5.49924e-07
1.96399e-05 2.76014e-05 -5.92736e-06
3.34045e-06 3.88588e-06 -1.1778e-06
1.52596e-06 1.00446e-05 -3.3343e-06
-6.97761e-06 3.05078e-05 -8.66169e-06
-1.1647e-05 9.62832e-06 -2.41751e-06
1.18422e-05 3.54076e-05 -8.30604e-06
-1.39642e-05 8.61134e-06 -2.22141e-06
3.3378e-05 2.49343e-05 -4.78912e-06
-8.87693e-06 2.94868e-06 -7.40276e-07
-0.00162018 -0.000236394 0.000665608
-2.90107e-07 5.54957e-06 -1.61966e-06
1.95483e-05 1.08154e-05 -1.40324e-06
3.18377e-06 1.00001e-05 -2.68022e-06
-1.18095e-05 6.53012e-06 -1.4166e-06
1.61808e-05 7.79543e-06 -1.16094e-06
5.55567e-06 9.15355e-06 -2.36437e-06
0.00153581 -0.00160898 8.22557e-05
-0.00084126 6.26457e-05 0.000317569
-3.81361e-06 5.95007e-06 -2.68978e-06
-8.11811e-06 1.91686e-05 -5.83231e-06
1.20301e-05 7.82407e-06 -1.58466e-06
1.86232e-06 2.70075e-05 -6.49852e-06
-3.00641e-06 9.31369e-06 -2.36452e-06
8.08018e-06 1.07151e-05 -3.03103e-06
-2.03952e-06 3.13371e-05 -7.94373e-06
0.00103318 5.09998e-05 0.00080867
-1.28594e-05 2.14473e-05 -6.28691e-06
3.30998e-06 1.95184e-06 -4.81657e-07
0.00123312 -0.00114756 -3.20018e-06
-3.44138e-06 3.72141e-06 -1.03055e-06
0.00227381 -0.000139247 -0.000524236
-1.07613e-05 2.88747e-05 -7.82229e-06
-4.80948e-06 1.71384e-05 -4.67072e-06
7.34401e-05 -0.000637903 0.000201944
6.23203e-06 8.72117e-06 -2.35091e-06
-0.000415272 -0.000420475 -0.000386353
8.4759e-06 9.87343e-06 -2.09343e-06
-5.11916e-06 9.06875e-06 -2.18738e-06
-8.439e-06 5.11853e-06 -2.39115e-06
1.67223e-05 3.1678e-05 -7.2935e-06
5.40691e-06 3.99318e-06 -9.07028e-07
-0.00143713 -0.00145737 -0.00021832
1.45575e-05 1.09451e-05 -2.36051e-06
6.82204e-06 3.49427e-06 -4.33641e-07
9.51878e-06 9.8383e-06 -1.95286e-06
-0.00123639 -0.00112491 -4.52152e-05
-1.90605e-05 1.89945e-05 -5.45454e-06
-1.45866e-05 2.44914e-05 -6.74718e-06
9.27641e-06 1.01276e-05 -2.10245e-06
8.03141e-08 9.29403e-06 -2.39063e-06
1.66248e-06 5.73795e-07 3.4752e-08
0.000157184 0.00162383 -0.000892213
-0.000434866 0.00041215 0.000357831
-0.000113191 -0.000358525 0.000297267
-1.54089e-05 1.84769e-05 -5.41048e-06
-5.52198e-06 7.88806e-06 -2.01354e-06
-1.14554e-05 5.79559e-06 -1.29353e-06
1.03092e-06 9.6843e-06 -2.3827e-06
0.000192454 -0.000432132 0.000358529
0.000168453 0.00114676 0.000352014
2.60322e-06 5.62729e-07 1.28406e-07
2.92726e-06 5.46889e-07 -1.36316e-07
-1.20257e-05 1.96242e-05 -5.06819e-06
-4.8491e-07 4.92035e-07 -3.2043e-08
-0.000168084 0.00114425 -0.000432255
-7.02461e-06 2.36073e-05 -5.76785e-06
-6.68161e-06 4.38101e-06 -1.33881e-06
2.02815e-05 3.2294e-05 -7.00801e-06
-1.20024e-06 3.25069e-07 -3.01165e-07