# vtk DataFile Version 4.2
vtk output
ASCII
DATASET UNSTRUCTURED_GRID

POINTS 343 double
0.00112226 0.00419486 1.05713e-07
0.00217073 0.00498236 0.00217537
0 0.00419538 0.00112517
0.0019293 0.00195428 0.00194218
0.00516697 0.00240518 0.00503216
0.00517061 0.00382869 0.00639736
0.00762118 0.00477229 0.00499868
0.00622344 0.00484839 0.00369169
0.00683386 0.0032859 0.00691366
0.00499019 0.00499137 0.00499971
0.0041781 0.00111673 0.00999895
0.00527837 0.00207842 0.00790381
0.00418726 -8.97927e-06 0.00831696
0.0020117 0.00200234 0.00803327
0.00428453 0.00253176 0.009999
0.0069566 0.00644439 0.00694654
0.00641354 0.00618039 0.00518282
0.00225976 0.00218441 0.00514609
0 0.00143586 0.00417514
0.00159416 0.00346608 0.00403702
0.00683463 0.00319114 0.00316145
0.0077419 0.00220929 0.00506369
0 0.00270918 0.00154168
0.00415586 0.00142705 3.19536e-07
0.00500524 0.00218607 0.00219814
0.00396125 0.00352589 0.00160323
0.00134456 -7.09562e-07 0.00406002
0.00418014 -9.39686e-06 0.00168844
0.00262619 0.00695138 2.20729e-07
0.00193833 0.00805262 0.00194494
0.00408744 0.00624743 0.00164521
0.00800427 0.0079826 0.00799668
0.00796351 0.00481215 0.00802173
0.00838795 0.00607581 0.00594745
0.0100009 0.00882007 0.00419135
0.00757791 0.00763261 0.00496331
0.00856989 0.00997574 0.00416602
0.00797778 0.00796764 0.00201579
0.00353485 0.00303592 0.00695943
0.00443616 0.00366096 0.00832383
0.00389019 0.00159943 0.00596897
0.00500623 0.00766703 0.00767642
0.00198976 0.00800776 0.0079896
0.00282852 0.0099968 0.00712705
0.00391737 0.0083987 0.00595769
0 0.00695361 0.00262895
0.00164635 0.00623916 0.0040879
0 0.0040177 0.00850214
0.00231482 0.00498554 0.00766147
0.00143314 0.0041744 0.00999994
0.00717569 0.00711537 0.00999725
0.00611803 0.00596887 0.00841693
0.00205192 0.00794131 0.00474183
0.00304374 0.0069426 0.00646763
0.00158681 0.00607827 0.005926
0.00998847 0.00577831 0.00831375
0 0.00718191 0.00711644
0.0015844 0.00577334 7.19549e-08
0 0.00577432 0.00158701
0.00999442 0.00715206 0.00711327
0.0028669 0.00334891 0.00999964
0.00996554 0.0014028 0.00417358
0.00803236 0.00193866 0.00197888
0.00838672 0.0034979 0.00399788
0.00372366 0.00164698 0.00412833
0.00150969 0.00999963 0.00581499
0.00280747 -4.32724e-06 0.00712768
0.0061084 0.00416945 0.00837541
0.0099934 0.00724407 0.00419369
0.00852294 -2.71994e-05 0.00416706
0.00334047 0.00286903 2.23484e-07
0.00269916 0.00153831 0.00999967
0.00281613 -4.77967e-06 0.00283205
0.00479725 0.00519303 0.00755396
0.0031571 0.00314583 0.00316736
0 0.00849157 0.00581511
0.00486319 0.00366824 0.00378615
0.00153655 0.0027086 5.06061e-08
0.00580115 0.00831411 0.00999787
0.0059873 0.00998717 0.00850444
0.00421568 0.00999296 0.00831706
0.00401884 0.00849738 0.00999869
0.01 0.00846146 0.00581229
0.00314732 0.00683319 0.00315088
0 0.00748929 0.00137438
0.00137338 0.00748896 3.3174e-08
0 0.00287343 0.00335182
0 0.00580816 0.00831736
0 0.00429792 0.00253898
0.00253305 0.00429563 2.1961e-07
0.00143387 0.00581912 0.00999995
0.00517544 0.00646733 0.00639979
0.00360337 0.00650894 0.00823363
0.00692988 0.00261001 0.00999765
0.00799594 0.00193567 0.00803339
0.006937 -2.01818e-05 0.00308178
0.00599743 0.00164991 0.00361266
0.00997193 0.00284156 0.00335053
0 0.00140616 0.00256446
0.00637455 0.00821452 0.00641984
0.00579309 0.00142072 5.50743e-07
0.00601988 0.00353879 0.00160327
0.00315819 0.00999585 0.00582505
0.0085653 0.00997595 0.00583103
0.0025526 0.00140241 2.35541e-07
0.00594551 -1.60242e-05 0.0014947
0.00628144 0.00827456 0.00361671
0.0085185 -2.69759e-05 0.00583172
0.00618347 0.00165795 0.00636435
0.00140199 0.00256402 0.01
0.00711151 0.00716503 -1.40957e-07
0.00516571 0.00768087 0.00216877
0.00593596 0.00608209 0.00160181
0 0.00686719 0.00578184
0.00996461 0.00137284 0.00256356
0.00177188 0.00360978 0.00640785
0.00999854 0.0084564 0.0026221
0.008403 0.00616671 0.0041315
0.00598504 0.00998637 0.0014935
0.00693729 -1.98437e-05 0.00692512
0.00996637 0.00140266 0.00581736
0.00837694 0.00354989 0.00605912
0.00150108 -9.04904e-07 0.00581519
0 0.0013659 0.00748679
0.00136304 -7.63516e-07 0.0075289
0.00999222 0.00683725 0.00577913
0.00581626 0.00847927 -1.74482e-08
0 0.0075208 0.00859127
0.00136523 0.00748641 0.00999987
0.00423161 0.00819936 0.00362808
0.00859896 0.00997578 0.0075094
0.0100016 0.00860028 0.00752288
0.00575246 0.00157329 0.00999817
0.00724419 0.00417067 0.00999743
0 0.0057735 0.00666667
0.00137063 0.00999955 0.00752893
0 0.00863025 0.00752641
0.00854878 -2.77388e-05 0.00250708
0.00999114 0.00692331 0.00262746
0.00845001 0.00631911 0.0021621
0.00850003 0.00580122 0.00999672
0.00746223 0.00135319 0.00999725
0.00855202 -2.72623e-05 0.00750956
0.00996683 0.00133312 0.00748368
0 0.00143551 0.00581971
0.00594828 -1.54639e-05 0.00850433
0.00418992 -9.46307e-06 0.00340002
0.00791836 0.00468671 0.00203398
0.00997831 0.0042669 0.00253778
0.00423325 0.00999267 0.00666589
0.00283751 0.00999685 0.00283187
0.00130622 -7.79576e-07 0.00241836
0 0.00727418 0.00419576
0.00998737 0.00574355 0.00666365
0.0069799 0.00998247 0.00308073
0.00751049 0.00861839 0.00999708
0 0.00574334 0.00336387
0 0.0043297 0.00416652
0.00686199 0.00576915 0.00999763
0.00997437 0.0029908 0.00691234
0.004203 -9.22081e-06 0.00666629
0.00248143 0.00999727 0.00861127
0.00745517 0.00134395 3.57478e-07
0.0057709 0.00665602 0.00999793
0.00999685 0.00749108 0.00858742
0.00860683 0.00753061 0.00999657
0.00689203 0.00300444 4.51662e-07
0.00335849 0.00574006 3.52586e-07
0.00752721 0.00861095 -3.82877e-07
0.0075216 0.00997979 0.0013866
0.00577689 0.00685589 6.86309e-08
0.00696787 0.006355 0.00303278
0.00747715 -2.30769e-05 0.00138789
0.00288029 0.00499688 0.00999952
0.00432539 0.00582793 0.00999873
0.00432068 0.00416072 0.00999882
0.00752465 0.00998047 0.00861344
0.00246331 -3.6569e-06 0.00861149
0.00998553 0.00571301 0.00336229
0 0.00302218 0.00691532
0.00997988 0.00398718 0.00849856
0.00848018 0.00399327 2.27951e-08
0.00997035 0.00267686 0.00154101
0 0.00244495 0.00857025
0.00244654 0.00856787 0.00999939
0.00748043 -2.24629e-05 0.00861328
0.0084632 0.00259949 0.00999673
0.00883395 0.00416891 0.00999654
0.00567744 0.0099879 0.00583224
0.0051854 0.00757454 0.00503174
0.00564921 0.00998783 0.00421448
0.00698005 0.00998287 0.0069247
0.00302092 0.00691309 0.00999924
0.00415611 0.00432385 4.81224e-07
0.00281928 -4.92943e-06 0.00440477
0.00313528 -5.51843e-06 0.00582553
0.00997722 0.00416402 0.00112448
0.00363837 0.00833248 0.00158831
0.00997925 0.00429888 0.00416476
0.00665594 0.00575856 2.47976e-07
0.00859595 0.00997532 0.00250576
0 0.00848692 0.00262374
0.0013523 0.0099996 0.00405985
0 0.00885053 0.00419359
0.00419566 0.00884327 1.71455e-07
0.00421002 0.00999244 0.00168762
0.00498874 0.00478331 0.00237886
0.00720231 0.00450365 2.87588e-07
0.00561212 -1.47035e-05 0.00421542
0.00564043 -1.46243e-05 0.00583276
0.00131378 0.00999961 0.00241805
0.00854081 0.00241912 1.42215e-07
0.00998166 0.00449135 0.00721642
0.00712272 0.00998212 0.00499878
0.00572848 0.00335242 0.00999822
0.00244366 -3.86915e-06 0.00135682
0.0099724 0.00241309 0.00856677
0.00239135 0.00478958 0.0049999
0.00581811 0.00431804 5.0436e-07
0.00830424 0.00578545 -2.15007e-07
0.00548671 0.0099888 0.00721924
0.00998002 0.0042995 0.00583081
0.00540903 0.00998855 0.00277507
0.00707937 -2.05517e-05 0.00499962
0.00284002 0.00999686 0.00440428
0 0.00452174 0.00721958
0.0045207 0.00721367 0.00999856
0.00545042 -1.36608e-05 0.0072192
0.0035973 0.00506998 0.00359648
0.00425784 0.00999259 0.0050077
0.00422676 -9.44396e-06 0.00500846
0.00366568 0.00521297 0.00617434
0 0.005744 0.00499998
0 0.00433013 0.00583333
0.00499191 0.00573608 4.51147e-07
0.00498001 0.0063313 0.00355358
0.00537262 -1.38921e-05 0.00277616
0.00998636 0.0057139 0.0049977
0.00368761 0.00640392 0.00484373
0.00573531 0.00498976 0.00999813
0.00998493 0.00574373 0.00158602
0 0.00666667 0
0.00858587 0.00749704 -5.82784e-07
0.00331372 -7.34859e-06 1.04527e-06
0 0.01 0.00666667
0.00500832 0.00999006 0.00999858
0 0.00288419 0.00499914
0.0099932 0.00745885 0.00137329
0.00998871 0.00663608 -8.60572e-07
0 0.005 0.01
0.00498098 0.00287425 4.39239e-07
0 0.005 0
0.00995822 -3.4412e-05 0.0033323
0.0100078 0.00996899 0.00666333
0.00419321 0.00726822 2.6207e-07
0.00997268 0.00285259 0.00499711
0.00497203 -1.31429e-05 1.09395e-06
0 0 0.00666667
0.00378923 0.00361206 0.00522616
0.00497541 -1.24835e-05 0.00999807
0.00995986 -3.40694e-05 0.00666394
0 0 0.005
0.00878655 0.00997419 0.001219
0.00999939 0.00874899 0.00121882
0.00995899 -3.41794e-05 0.00499814
0.00998069 0.00496881 -5.86976e-07
0.00121502 0.00121913 -2.52147e-09
0 0.00122008 0.00122008
0 0.00333333 0.01
0 0.00666667 0.01
0.00878033 0.00875467 -8.47381e-07
0.0100062 0.00996857 0.00333118
0.00422076 0.00999254 0.00339929
0.00999339 0.00663706 0.00999603
0 0.00333333 0
0 0.00122008 0.00877992
0.00121435 -9.80774e-07 0.00877963
0.00121576 0.00121944 0.0100001
0.00878995 0.00997484 0.00877676
0.00122014 0.0087794 0.00999986
0 0.00877992 0.00877992
0.0100031 0.00874984 0.00877605
0.00667349 0.00998322 -6.30517e-07
0.00996304 0.00118633 0.00121971
0.00122127 0.00999936 0.00878011
0.008785 0.00875556 0.00999655
0.00998534 0.00496992 0.00999607
0 0 0.00333333
0.00663152 -1.95779e-05 1.03918e-06
0.00873912 -2.8951e-05 0.00122042
0.00120521 -1.02765e-06 0.00121217
0 0.00877992 0.00122008
0.00121998 0.00877933 1.19725e-07
0.00121245 0.00999942 0.00121139
0.00996668 0.00118707 0.0087762
0.00874904 0.00119274 0.00999648
0.00663586 -1.89271e-05 0.00999708
0.00874431 0.00119196 2.48239e-07
0.0087428 -2.82936e-05 0.00877649
0.00997277 0.00330132 -3.68544e-07
0.00333934 0.00999473 0.00999954
0.00246241 0.00999749 0.00135633
0.00667722 0.00998402 0.00999785
0.00997733 0.00330244 0.00999606
0 0.01 0.005
0.00262421 0.00848428 2.25476e-07
0.010007 0.00996879 0.00499734
0 0.01 0.00333333
0 0.00166667 0
0.00995745 -3.4728e-05 0.00166637
0 0.00166667 0.01
0 0.00833333 0
0.00999682 0.00830241 -1.14818e-06
0.0099607 -3.41464e-05 0.00832962
0.0100055 0.00996832 0.00166512
0.0100086 0.00996904 0.00832959
0.00166952 0.00999824 0.00999989
0 0.01 0.00833333
0.00833989 0.00997599 -9.39458e-07
0.00829322 -2.72704e-05 6.23013e-07
0.00829794 -2.65676e-05 0.00999637
0.00834412 0.00997663 0.0099969
0 0 0.00833333
0.0100015 0.00830341 0.00999596
0.0016566 -2.55848e-06 3.22475e-07
0 0 0.00166667
0.00333839 0.00999495 8.62185e-08
0.00996938 0.00163389 0.00999598
0.00996472 0.00163308 -2.02423e-07
0.00165805 -2.08737e-06 0.00999998
0.00166895 0.0099986 8.41849e-08
0 0.01 0.00166667
0.0100095 0.00996906 0.00999606
0 0 0.01
0.0100048 0.00996813 -1.49723e-06
0.00996147 -3.42608e-05 0.00999561
0 0.01 0.01
0.00995672 -3.5e-05 1.26532e-07
0 0.01 0
0 0 0
0.00500616 0.00998949 -1.92732e-07
0.00331622 -6.58707e-06 0.0099989
0 0.00833333 0.01

CELLS 343 686
1 0
1 1
1 2
1 3
1 4
1 5
1 6
1 7
1 8
1 9
1 10
1 11
1 12
1 13
1 14
1 15
1 16
1 17
1 18
1 19
1 20
1 21
1 22
1 23
1 24
1 25
1 26
1 27
1 28
1 29
1 30
1 31
1 32
1 33
1 34
1 35
1 36
1 37
1 38
1 39
1 40
1 41
1 42
1 43
1 44
1 45
1 46
1 47
1 48
1 49
1 50
1 51
1 52
1 53
1 54
1 55
1 56
1 57
1 58
1 59
1 60
1 61
1 62
1 63
1 64
1 65
1 66
1 67
1 68
1 69
1 70
1 71
1 72
1 73
1 74
1 75
1 76
1 77
1 78
1 79
1 80
1 81
1 82
1 83
1 84
1 85
1 86
1 87
1 88
1 89
1 90
1 91
1 92
1 93
1 94
1 95
1 96
1 97
1 98
1 99
1 100
1 101
1 102
1 103
1 104
1 105
1 106
1 107
1 108
1 109
1 110
1 111
1 112
1 113
1 114
1 115
1 116
1 117
1 118
1 119
1 120
1 121
1 122
1 123
1 124
1 125
1 126
1 127
1 128
1 129
1 130
1 131
1 132
1 133
1 134
1 135
1 136
1 137
1 138
1 139
1 140
1 141
1 142
1 143
1 144
1 145
1 146
1 147
1 148
1 149
1 150
1 151
1 152
1 153
1 154
1 155
1 156
1 157
1 158
1 159
1 160
1 161
1 162
1 163
1 164
1 165
1 166
1 167
1 168
1 169
1 170
1 171
1 172
1 173
1 174
1 175
1 176
1 177
1 178
1 179
1 180
1 181
1 182
1 183
1 184
1 185
1 186
1 187
1 188
1 189
1 190
1 191
1 192
1 193
1 194
1 195
1 196
1 197
1 198
1 199
1 200
1 201
1 202
1 203
1 204
1 205
1 206
1 207
1 208
1 209
1 210
1 211
1 212
1 213
1 214
1 215
1 216
1 217
1 218
1 219
1 220
1 221
1 222
1 223
1 224
1 225
1 226
1 227
1 228
1 229
1 230
1 231
1 232
1 233
1 234
1 235
1 236
1 237
1 238
1 239
1 240
1 241
1 242
1 243
1 244
1 245
1 246
1 247
1 248
1 249
1 250
1 251
1 252
1 253
1 254
1 255
1 256
1 257
1 258
1 259
1 260
1 261
1 262
1 263
1 264
1 265
1 266
1 267
1 268
1 269
1 270
1 271
1 272
1 273
1 274
1 275
1 276
1 277
1 278
1 279
1 280
1 281
1 282
1 283
1 284
1 285
1 286
1 287
1 288
1 289
1 290
1 291
1 292
1 293
1 294
1 295
1 296
1 297
1 298
1 299
1 300
1 301
1 302
1 303
1 304
1 305
1 306
1 307
1 308
1 309
1 310
1 311
1 312
1 313
1 314
1 315
1 316
1 317
1 318
1 319
1 320
1 321
1 322
1 323
1 324
1 325
1 326
1 327
1 328
1 329
1 330
1 331
1 332
1 333
1 334
1 335
1 336
1 337
1 338
1 339
1 340
1 341
1 342

CELL_TYPES 343
1
1
1
1
1
1
1
1
1
1
1
1
1
1
1
1
1
1
1
1
1
1
1
1
1
1
1
1
1
1
1
1
1
1
1
1
1
1
1
1
1
1
1
1
1
1
1
1
1
1
1
1
1
1
1
1
1
1
1
1
1
1
1
1
1
1
1
1
1
1
1
1
1
1
1
1
1
1
1
1
1
1
1
1
1
1
1
1
1
1
1
1
1
1
1
1
1
1
1
1
1
1
1
1
1
1
1
1
1
1
1
1
1
1
1
1
1
1
1
1
1
1
1
1
1
1
1
1
1
1
1
1
1
1
1
1
1
1
1
1
1
1
1
1
1
1
1
1
1
1
1
1
1
1
1
1
1
1
1
1
1
1
1
1
1
1
1
1
1
1
1
1
1
1
1
1
1
1
1
1
1
1
1
1
1
1
1
1
1
1
1
1
1
1
1
1
1
1
1
1
1
1
1
1
1
1
1
1
1
1
1
1
1
1
1
1
1
1
1
1
1
1
1
1
1
1
1
1
1
1
1
1
1
1
1
1
1
1
1
1
1
1
1
1
1
1
1
1
1
1
1
1
1
1
1
1
1
1
1
1
1
1
1
1
1
1
1
1
1
1
1
1
1
1
1
1
1
1
1
1
1
1
1
1
1
1
1
1
1
1
1
1
1
1
1
1
1
1
1
1
1
1
1
1
1
1
1
1
1
1
1
1
1
1
1
1
1
1
1
1
1
1
1
1
1
1
1
1
1
1
1
1
1
1
1
1
1
1
1
1
1
1
1

POINT_DATA 343
FIELD FieldData 8

NodeID_(#) 1 343 int
0
1
2
3
4
5
6
7
8
9
10
11
12
13
14
15
16
17
18
19
20
21
22
23
24
25
26
27
28
29
30
31
32
33
34
35
36
37
38
39
40
41
42
43
44
45
46
47
48
49
50
51
52
53
54
55
56
57
58
59
60
61
62
63
64
65
66
67
68
69
70
71
72
73
74
75
76
77
78
79
80
81
82
83
84
85
86
87
88
89
90
91
92
93
94
95
96
97
98
99
100
101
102
103
104
105
106
107
108
109
110
111
112
113
114
115
116
117
118
119
120
121
122
123
124
125
126
127
128
129
130
131
132
133
134
135
136
137
138
139
140
141
142
143
144
145
146
147
148
149
150
151
152
153
154
155
156
157
158
159
160
161
162
163
164
165
166
167
168
169
170
171
172
173
174
175
176
177
178
179
180
181
182
183
184
185
186
187
188
189
190
191
192
193
194
195
196
197
198
199
200
201
202
203
204
205
206
207
208
209
210
211
212
213
214
215
216
217
218
219
220
221
222
223
224
225
226
227
228
229
230
231
232
233
234
235
236
237
238
239
240
241
242
243
244
245
246
247
248
249
250
251
252
253
254
255
256
257
258
259
260
261
262
263
264
265
266
267
268
269
270
271
272
273
274
275
276
277
278
279
280
281
282
283
284
285
286
287
288
289
290
291
292
293
294
295
296
297
298
299
300
301
302
303
304
305
306
307
308
309
310
311
312
313
314
315
316
317
318
319
320
321
322
323
324
325
326
327
328
329
330
331
332
333
334
335
336
337
338
339
340
341
342

Component_(#) 1 343 int
0
0
0
0
0
0
0
0
0
0
0
0
0
0
0
0
0
0
0
0
0
0
0
0
0
0
0
0
0
0
0
0
0
0
0
0
0
0
0
0
0
0
0
0
0
0
0
0
0
0
0
0
0
0
0
0
0
0
0
0
0
0
0
0
0
0
0
0
0
0
0
0
0
0
0
0
0
0
0
0
0
0
0
0
0
0
0
0
0
0
0
0
0
0
0
0
0
0
0
0
0
0
0
0
0
0
0
0
0
0
0
0
0
0
0
0
0
0
0
0
0
0
0
0
0
0
0
0
0
0
0
0
0
0
0
0
0
0
0
0
0
0
0
0
0
0
0
0
0
0
0
0
0
0
0
0
0
0
0
0
0
0
0
0
0
0
0
0
0
0
0
0
0
0
0
0
0
0
0
0
0
0
0
0
0
0
0
0
0
0
0
0
0
0
0
0
0
0
0
0
0
0
0
0
0
0
0
0
0
0
0
0
0
0
0
0
0
0
0
0
0
0
0
0
0
0
0
0
0
0
0
0
0
0
0
0
0
0
0
0
0
0
0
0
0
0
0
0
0
0
0
0
0
0
0
0
0
0
0
0
0
0
0
0
0
0
0
0
0
0
0
0
0
0
0
0
0
0
0
0
0
0
0
0
0
0
0
0
0
0
0
0
0
0
0
0
0
0
0
0
0
0
0
0
0
0
0
0
0
0
0
0
0
0
0
0
0
0
0
0
0
0
0
0
0
0
0
0
0
0
0
0
0
0
0
0
0
0
0
0
0
0
0

NodalMass_(kg) 1 343 double
3.15563e-06
1.41304e-05
2.20912e-06
1.71484e-05
8.42e-06
9.09306e-06
9.93033e-06
7.52198e-06
6.81096e-06
5.58223e-06
3.10888e-06
1.07575e-05
4.87011e-06
1.64955e-05
3.0246e-06
8.05984e-06
6.703e-06
1.0877e-05
4.18978e-06
8.16106e-06
6.14143e-06
1.17902e-05
2.23114e-06
4.25176e-06
1.09915e-05
7.41467e-06
4.21871e-06
3.92484e-06
3.08766e-06
1.31268e-05
7.72627e-06
1.65404e-05
1.19037e-05
7.29666e-06
3.81683e-06
1.11001e-05
3.81317e-06
1.39137e-05
6.37414e-06
8.00975e-06
7.6712e-06
1.18847e-05
1.6399e-05
2.78633e-06
8.93599e-06
2.58087e-06
7.57362e-06
4.23241e-06
1.31286e-05
3.80168e-06
2.7746e-06
7.16776e-06
1.21307e-05
5.11765e-06
8.19728e-06
4.58094e-06
2.79503e-06
3.26126e-06
4.12443e-06
2.11915e-06
3.35177e-06
3.61669e-06
1.56838e-05
7.33679e-06
8.24695e-06
5.00369e-06
2.82625e-06
7.20276e-06
3.26815e-06
4.18751e-06
2.02785e-06
2.42152e-06
3.11835e-06
5.97459e-06
5.87101e-06
4.09374e-06
5.45463e-06
2.28825e-06
4.49759e-06
4.38192e-06
4.50892e-06
4.39234e-06
4.27273e-06
5.32031e-06
1.53201e-06
2.38869e-06
2.02885e-06
4.38798e-06
3.17972e-06
3.14298e-06
4.61567e-06
5.87645e-06
8.18088e-06
2.48341e-06
1.53815e-05
3.49683e-06
7.35227e-06
2.01314e-06
2.0408e-06
7.98183e-06
4.41293e-06
7.1389e-06
1.20123e-06
5.03343e-06
1.61257e-06
4.12601e-06
8.73748e-06
4.37849e-06
7.97173e-06
2.13557e-06
3.38137e-06
9.48623e-06
7.40262e-06
1.80226e-06
2.10222e-06
7.98889e-06
1.87983e-06
7.44814e-06
4.19782e-06
2.37156e-06
4.31705e-06
6.06441e-06
4.30905e-06
2.16843e-06
1.8986e-06
1.81294e-06
3.89762e-06
2.44299e-06
1.65628e-06
8.01374e-06
1.64513e-06
2.3931e-06
3.01363e-06
2.99431e-06
1.36541e-06
1.87293e-06
2.09622e-06
1.94762e-06
1.87618e-06
6.37913e-06
4.58628e-06
2.02767e-06
1.61999e-06
2.41284e-06
3.8865e-06
4.44973e-06
2.29839e-06
1.17349e-05
3.11811e-06
1.354e-06
3.45063e-06
1.81846e-06
2.9382e-06
1.37381e-06
2.41464e-06
2.10451e-06
2.63927e-06
2.14166e-06
1.7943e-06
3.19976e-06
1.36989e-06
2.43489e-06
2.08158e-06
1.3601e-06
2.17203e-06
1.89924e-06
3.16996e-06
2.6119e-06
2.37677e-06
1.60225e-06
1.90684e-06
5.49206e-06
1.87878e-06
3.14313e-06
2.97301e-06
1.18454e-06
1.89263e-06
2.04166e-06
2.73572e-06
2.42405e-06
3.23083e-06
3.19752e-06
3.2142e-06
1.94492e-06
1.61196e-06
1.86876e-06
3.22435e-06
2.1114e-06
2.96917e-06
6.15288e-06
2.3097e-06
2.39729e-06
2.38029e-06
2.64508e-06
1.66557e-06
1.82377e-06
2.06583e-06
5.73271e-06
2.08467e-06
2.18324e-06
2.43522e-06
3.1188e-06
3.17316e-06
2.05447e-06
1.9592e-06
3.05718e-06
6.44327e-06
2.08796e-06
2.72615e-06
2.15709e-06
1.86812e-06
2.0028e-06
2.10999e-06
2.88994e-06
2.3222e-06
2.3979e-06
1.97629e-06
6.4127e-06
2.16225e-06
3.29198e-06
2.10223e-06
2.66566e-06
1.94415e-06
2.91865e-06
2.58116e-06
2.11703e-06
2.09534e-06
1.91719e-06
7.06046e-06
2.25203e-06
2.06378e-06
6.28159e-06
2.12147e-06
2.90924e-06
2.12921e-06
6.4487e-06
1.41701e-06
2.0682e-06
6.58062e-06
2.52584e-06
2.39732e-06
7.42191e-07
2.22368e-06
7.06751e-07
7.00657e-07
8.93749e-07
2.53536e-06
2.26535e-06
1.33607e-06
7.84725e-07
2.32303e-06
6.06694e-07
6.68276e-07
6.84307e-07
2.51242e-06
2.31629e-06
7.8367e-07
6.80839e-07
6.22692e-06
6.7471e-07
6.65305e-07
7.01158e-07
1.8232e-06
1.90695e-06
6.86722e-07
7.04792e-07
1.86445e-06
2.28572e-06
6.8045e-07
7.16005e-07
1.82373e-06
6.01079e-07
2.02791e-06
7.4579e-07
5.74423e-07
1.80052e-06
1.454e-06
2.2702e-06
1.80636e-06
2.15356e-06
1.79089e-06
1.79456e-06
6.8231e-07
2.24737e-06
1.45239e-06
1.79556e-06
6.97875e-07
6.24265e-07
6.62717e-07
1.44627e-06
1.40138e-06
2.15258e-06
1.82851e-06
1.3994e-06
1.43932e-06
2.19226e-06
6.97732e-07
1.77726e-06
1.79162e-06
6.54258e-07
7.3397e-07
2.34895e-06
7.10392e-07
6.56982e-07
6.26314e-07
2.18926e-06
6.12493e-07
6.03901e-07
5.92831e-07
5.12031e-07
5.11667e-07
4.9467e-07
4.97016e-07
4.96269e-07
5.33079e-07
4.94191e-07
4.97855e-07
4.86862e-07
4.90626e-07
4.94649e-07
4.94954e-07
4.91922e-07
4.89615e-07
4.96354e-07
4.95189e-07
4.82188e-07
1.10854e-06
5.3299e-07
5.44763e-07
5.36655e-07
5.15417e-07
5.01772e-07
5.53774e-07
5.53774e-07
5.53774e-07
5.53774e-07
5.53774e-07
5.53774e-07
5.50785e-07
5.50785e-07
7.45291e-07
7.11668e-07
4.9897e-07

NodalForce_(N) 3 343 double
2.36108e-07 2.61895e-08 -5.41296e-09
1.40516e-06 2.24425e-07 2.48055e-07
0.000393846 0.000463179 0.000490128
2.65254e-06 4.65197e-07 1.58947e-07
3.09667e-06 2.49867e-06 1.40112e-06
8.08449e-07 1.92061e-06 1.83984e-06
9.65617e-07 5.21965e-06 3.88777e-06
1.462e-06 2.42043e-06 1.80161e-06
9.2926e-07 3.1679e-06 2.42228e-06
3.63382e-07 9.33395e-07 9.06352e-07
1.64112e-07 8.21603e-07 5.38408e-07
1.84459e-06 3.53666e-06 2.64943e-06
1.46487e-06 1.4932e-06 8.66052e-07
1.86268e-07 3.11207e-07 2.63576e-07
-2.43534e-07 5.65884e-07 5.36895e-07
-2.72345e-06 2.97721e-06 3.0421e-06
-7.85574e-07 2.0556e-06 1.93392e-06
1.05419e-06 3.40406e-07 3.59678e-07
-0.00141896 0.000808076 -0.000161678
5.05988e-07 6.87509e-08 1.2146e-07
3.02101e-06 2.99992e-06 1.67567e-06
5.83994e-06 7.97083e-06 4.70843e-06
-0.000599998 -0.00182335 -0.000964078
2.65227e-06 1.19852e-06 3.16019e-07
6.22101e-06 3.47415e-06 1.39314e-06
2.36067e-06 8.98106e-07 6.07668e-07
5.62723e-07 1.10507e-07 4.49241e-08
2.77888e-06 1.32422e-06 2.9803e-07
4.76719e-07 9.50436e-08 6.88361e-08
5.64815e-07 2.0734e-07 1.58529e-07
1.15527e-06 6.16104e-07 6.92369e-07
-1.20852e-05 8.73627e-06 8.39816e-06
-2.56716e-06 6.72942e-06 5.93511e-06
-1.66469e-06 4.45341e-06 3.60558e-06
-2.25076e-06 3.45229e-06 2.35369e-06
-4.0289e-06 5.24231e-06 4.39092e-06
-2.71416e-06 2.74681e-06 1.8625e-06
-2.28968e-06 7.62799e-06 5.21208e-06
4.5528e-07 5.87494e-07 6.03469e-07
-4.15011e-07 1.11097e-06 1.43618e-06
2.2334e-06 1.55414e-06 7.19127e-07
-4.57402e-06 2.07856e-06 2.62499e-06
-1.60918e-06 1.434e-07 4.75105e-07
-7.50607e-07 2.37629e-07 1.84563e-07
-1.91468e-06 1.03778e-06 1.00289e-06
0.00101235 0.000830371 -0.000420138
1.80582e-07 6.74522e-08 9.49526e-08
-0.000153509 0.00117046 5.8175e-05
-7.72215e-07 2.59352e-07 5.02954e-07
-2.54625e-07 3.43724e-08 3.60436e-08
-2.02251e-06 1.13471e-06 1.251e-06
-2.6066e-06 1.93563e-06 2.36982e-06
-1.29373e-07 1.55949e-07 2.88866e-07
-3.77367e-07 1.5682e-07 3.34426e-07
-1.39399e-07 6.17309e-08 1.36796e-07
-2.14009e-06 4.06137e-06 3.26315e-06
0.000841874 0.000673747 0.000748753
2.94471e-07 3.2738e-08 1.46338e-08
-0.00015597 1.74911e-05 -0.000396069
-1.24253e-06 1.8609e-06 1.45496e-06
-5.6667e-07 1.70748e-07 2.42269e-07
2.54893e-06 4.04162e-06 2.12851e-06
1.31275e-05 1.18489e-05 5.39309e-06
2.84509e-06 5.20561e-06 3.20246e-06
3.04112e-06 1.57906e-06 5.99615e-07
-3.74201e-07 5.19407e-08 7.84351e-08
8.42755e-07 4.3039e-07 1.43832e-07
-9.04167e-07 2.21763e-06 2.36277e-06
-1.02994e-06 2.89775e-06 1.99034e-06
4.05168e-06 4.0161e-06 1.84742e-06
7.31181e-07 2.1408e-07 9.69834e-08
-1.33586e-07 2.2878e-07 1.65409e-07
1.38562e-06 5.47777e-07 1.21111e-07
-7.39895e-07 8.70007e-07 1.19939e-06
1.15258e-06 3.6282e-07 3.22265e-07
0.00152272 0.000667248 0.000382292
1.54573e-06 1.08814e-06 7.59775e-07
2.88199e-07 1.29464e-08 1.37005e-08
-3.32244e-06 1.21459e-06 1.46002e-06
-3.59945e-06 1.52887e-06 1.45573e-06
-2.34009e-06 8.42465e-07 7.95005e-07
-2.18122e-06 5.84327e-07 7.47563e-07
-2.91913e-06 3.77713e-06 2.82062e-06
2.77228e-07 2.13247e-07 2.79953e-07
1.27643e-05 -0.00118452 0.000424678
1.3796e-07 7.76731e-09 8.28996e-10
0.000122949 -0.000727166 0.000468061
-0.000751404 -0.000330704 7.29336e-05
-0.0003025 0.000327846 -0.000187887
6.30915e-07 1.17321e-07 7.66954e-08
-4.22943e-07 2.28356e-08 3.97645e-08
-1.09604e-06 1.02268e-06 1.21094e-06
-1.68866e-06 3.85182e-07 1.0312e-06
-1.26638e-07 1.27589e-06 1.00849e-06
3.89646e-06 1.10547e-05 7.65313e-06
3.41202e-06 2.4877e-06 9.13128e-07
4.58943e-06 3.38756e-06 1.48488e-06
1.07304e-06 2.06646e-06 1.14201e-06
-4.49898e-05 0.000144997 -1.54926e-05
-3.69089e-06 2.65076e-06 2.53282e-06
3.93391e-06 2.13267e-06 6.67962e-07
3.76266e-06 2.61701e-06 1.37994e-06
-2.88547e-07 1.25267e-07 8.83636e-08
-4.37071e-06 3.58468e-06 2.64201e-06
5.80243e-07 1.83419e-07 4.43229e-08
4.10737e-06 2.33435e-06 6.98697e-07
-2.00946e-06 2.89754e-06 2.1927e-06
3.50491e-06 4.1464e-06 2.13877e-06
3.12143e-06 3.74954e-06 2.30411e-06
-7.65628e-08 9.97291e-09 1.76203e-08
4.41298e-07 1.44303e-06 9.06492e-07
-8.0617e-08 1.95525e-06 1.49282e-06
1.36918e-06 1.84131e-06 1.45822e-06
-0.000781973 -0.000381086 -0.000859128
1.81755e-06 2.38506e-06 1.1393e-06
7.56107e-08 9.25824e-08 1.48329e-07
-7.20914e-07 1.69394e-06 1.08618e-06
-4.95064e-07 4.59919e-06 3.34118e-06
-1.12212e-06 1.58609e-06 9.39824e-07
1.48876e-06 1.63679e-06 8.69734e-07
2.34731e-06 4.777e-06 2.75158e-06
1.09854e-06 4.24324e-06 2.97233e-06
4.57215e-07 1.28943e-07 5.48043e-08
0.000325617 0.000267886 0.000129447
1.26404e-07 4.31788e-08 1.42107e-08
-7.21633e-07 1.60207e-06 1.18858e-06
7.95417e-08 1.19541e-06 7.08491e-07
-0.000120331 -0.000803884 -0.000483445
-1.59895e-07 -1.09993e-08 2.5189e-08
-7.17085e-07 1.12196e-06 8.45069e-07
-1.70965e-06 1.18468e-06 9.2958e-07
-2.11426e-06 2.10762e-06 1.69494e-06
1.89525e-07 1.28543e-06 9.05578e-07
-8.53855e-07 1.4025e-06 1.32272e-06
0.000572949 -0.00124641 -0.000148336
-1.7442e-07 2.79727e-08 9.72694e-09
5.20146e-05 7.38623e-05 -0.000282905
2.20272e-06 1.92684e-06 7.53996e-07
-2.09046e-07 1.67868e-06 1.07235e-06
5.51932e-07 4.05004e-06 2.63413e-06
-2.72168e-06 2.87046e-06 2.61995e-06
2.65741e-07 1.38522e-06 9.43251e-07
1.03765e-06 1.55313e-06 8.8249e-07
9.54429e-07 2.66922e-06 1.63339e-06
-0.00114448 0.000350705 0.000117183
1.8573e-06 2.35194e-06 1.4058e-06
1.49371e-06 7.75395e-07 2.01798e-07
4.43989e-06 6.97035e-06 4.16763e-06
1.12956e-06 2.98102e-06 1.73585e-06
-5.92083e-07 2.68933e-07 2.05465e-07
-4.14596e-07 2.83125e-07 1.76086e-07
2.79961e-07 5.68862e-08 -5.78863e-09
-0.000299046 -0.000755011 -0.000108729
-3.99379e-07 1.22619e-06 9.28217e-07
-1.15054e-06 1.21156e-06 7.54606e-07
-2.00475e-06 1.02641e-06 1.02031e-06
0.000574593 -0.000895083 0.00029279
-0.00166404 0.00017441 0.000538487
-9.26503e-07 6.57143e-07 7.33932e-07
5.0804e-07 3.20635e-06 2.16014e-06
6.05577e-07 4.40239e-07 1.77315e-07
-7.45423e-07 1.88146e-07 1.5185e-07
2.14897e-06 1.52058e-06 5.50391e-07
-7.35837e-07 3.26249e-07 4.40132e-07
-1.72437e-06 1.89136e-06 1.57598e-06
-1.69032e-06 1.18022e-06 1.12043e-06
2.42722e-06 1.6775e-06 7.20077e-07
5.75951e-07 1.14578e-07 1.17283e-07
-1.85291e-07 1.23538e-06 7.4279e-07
-6.09209e-07 9.49125e-07 5.5436e-07
3.7529e-07 4.83997e-07 3.37332e-07
1.04748e-07 2.12827e-06 1.61269e-06
2.17916e-06 1.55461e-06 5.14561e-07
-6.90146e-07 6.57363e-08 2.6661e-07
-9.9993e-07 2.79163e-07 5.84689e-07
-2.56639e-07 1.28497e-07 2.27993e-07
-1.95506e-06 1.07461e-06 9.04776e-07
3.50778e-07 2.50862e-07 9.68543e-08
1.11417e-07 2.4769e-06 1.58861e-06
0.000331842 -0.000795076 -0.000705214
-5.4368e-07 3.04745e-06 2.27825e-06
2.13057e-06 2.34473e-06 1.12869e-06
2.33486e-06 3.36709e-06 1.67107e-06
0.000360308 -0.000882815 0.000471423
-4.59129e-07 6.91951e-08 1.22661e-07
9.17609e-07 1.46376e-06 8.73711e-07
-1.76393e-07 2.41688e-06 1.81734e-06
-6.84684e-07 1.54989e-06 1.27147e-06
-1.59e-06 9.88554e-07 7.49011e-07
-1.15527e-06 1.21177e-06 1.14831e-06
-9.38332e-07 7.74285e-07 4.99164e-07
-1.94904e-06 1.16964e-06 9.45394e-07
-6.61877e-07 6.30924e-08 2.49561e-07
9.40602e-07 3.07107e-07 2.06574e-07
6.37111e-07 2.87765e-07 6.44623e-08
7.03084e-07 3.58849e-07 8.93215e-08
1.04717e-06 2.01696e-06 1.0598e-06
1.0116e-07 6.48836e-07 4.47871e-07
4.1937e-07 1.97518e-06 1.24626e-06
7.68837e-07 8.1161e-07 4.78224e-07
-1.37909e-06 1.79943e-06 1.11766e-06
0.000284122 -0.000422652 0.000255584
-1.07459e-07 2.83861e-08 4.62482e-08
-4.81911e-05 0.0005606 0.000135432
6.731e-08 3.49777e-07 1.87751e-07
-4.64088e-07 6.18892e-07 3.476e-07
1.66502e-06 1.1077e-06 9.03149e-07
1.14954e-06 1.04079e-06 5.30504e-07
2.05079e-06 1.40503e-06 4.78296e-07
1.32953e-06 1.0987e-06 4.87265e-07
-1.67378e-08 1.67345e-08 1.1224e-08
1.86053e-06 1.65476e-06 6.96053e-07
-2.74059e-07 1.96235e-06 1.44547e-06
-1.91562e-06 1.48355e-06 1.06089e-06
-3.80562e-07 6.87765e-07 6.97589e-07
1.04153e-06 3.53504e-07 3.87356e-08
2.05683e-07 2.04871e-06 1.37277e-06
2.09829e-07 1.60777e-07 2.31399e-07
1.10362e-06 6.611e-07 3.57152e-07
1.17381e-06 2.10075e-06 1.16432e-06
-1.32285e-06 6.37227e-07 5.31751e-07
1.10365e-07 2.50988e-06 1.72259e-06
-5.69881e-07 6.10835e-07 3.74003e-07
2.36767e-06 2.10308e-06 9.58171e-07
-4.24993e-07 2.10491e-07 1.25686e-07
-0.000831914 -0.000151149 0.000244334
-9.93449e-07 2.61283e-07 4.4183e-07
9.33084e-07 9.02965e-07 4.69568e-07
7.96728e-07 4.66696e-07 5.14738e-07
-7.62511e-07 4.52961e-07 2.87534e-07
1.17378e-06 6.92157e-07 1.96169e-07
-4.7303e-08 4.07728e-07 5.81011e-07
0.000827832 -0.000871005 1.39556e-06
-0.000226049 -3.6835e-05 0.000246901
6.34012e-07 3.36042e-07 2.55464e-07
2.58712e-07 9.72579e-07 9.27168e-07
1.17597e-06 6.94061e-07 2.06663e-07
-2.47439e-07 1.85494e-06 1.29939e-06
-1.84559e-08 4.01511e-07 5.38349e-07
-9.06376e-07 5.74895e-07 7.85107e-07
4.65005e-07 2.19568e-06 1.27958e-06
0.000414634 9.94906e-06 0.000322023
1.46989e-07 1.46258e-06 8.70707e-07
4.4615e-07 1.92585e-07 9.22971e-09
0.000668753 -0.000595217 -8.87609e-06
-6.96816e-07 2.48382e-07 2.1164e-07
0.00116426 -0.000230855 -0.000260169
-2.17014e-07 2.02691e-06 1.21013e-06
2.25296e-07 1.20644e-06 6.73557e-07
9.76188e-05 -0.000366789 4.98702e-05
1.40356e-06 6.45385e-07 2.72505e-07
-0.0002904 -0.00032298 -0.000279761
7.07962e-07 8.34321e-07 3.69803e-07
-7.15193e-07 6.62142e-07 4.76284e-07
3.92582e-07 2.93842e-07 2.24641e-07
8.76952e-07 2.3534e-06 1.43301e-06
7.3272e-07 3.77436e-07 5.98652e-08
-0.00084263 -0.000903972 -0.000117002
8.40533e-07 5.71237e-07 5.4252e-07
1.56495e-07 2.97215e-07 1.78993e-07
4.90145e-07 8.17446e-07 4.36163e-07
-0.00070965 -0.000663385 -4.07872e-05
-8.57826e-07 1.42263e-06 8.22435e-07
-5.94938e-07 1.76745e-06 1.03949e-06
6.20349e-07 8.49133e-07 4.17618e-07
3.23722e-07 6.74672e-07 3.44807e-07
2.28223e-07 4.13318e-08 6.95372e-09
0.000242261 0.000845501 -0.000362082
-0.000142257 0.000151399 0.000118272
4.03195e-05 -0.000255519 7.34053e-05
-2.93435e-07 1.33053e-06 7.71067e-07
-4.35877e-07 5.9295e-07 3.66934e-07
-4.95183e-07 4.0801e-07 2.28211e-07
-5.76882e-07 6.48994e-07 5.32388e-07
1.56978e-05 -0.000192627 0.000108909
0.000174757 0.000698561 0.000193131
6.96485e-08 4.68546e-08 3.73906e-08
-2.72308e-08 2.93235e-08 1.02238e-08
-2.12883e-06 1.36193e-06 1.09104e-06
-1.99652e-07 8.60766e-09 3.04958e-08
-1.54368e-05 0.000536562 -0.000185649
-1.8644e-06 1.59081e-06 1.30562e-06
-1.41213e-07 3.34578e-07 1.87046e-07
2.30662e-06 2.62318e-06 1.11363e-06
-1.52729e-07 2.88489e-08 1.76029e-08
-1.98576e-06 1.23618e-06 1.08688e-06
-3.3522e-07 6.32642e-07 4.94504e-07
-0.000798951 -0.000740515 -0.000144321