# vtk DataFile Version 4.2
vtk output
ASCII
DATASET UNSTRUCTURED_GRID

POINTS 343 double
0.00112207 0.00419511 6.85079e-08
0.00217004 0.00498316 0.00217509
0 0.00419538 0.00112517
0.00193096 0.00195505 0.00194192
0.00517601 0.00241248 0.00503008
0.00517709 0.00383488 0.00639499
0.00762658 0.00478592 0.00499388
0.00622546 0.00485739 0.00368885
0.00684524 0.00329764 0.00690918
0.00499204 0.00499677 0.00499788
0.00419135 0.00112252 0.0099966
0.0052912 0.00208634 0.00790088
0.0042019 -2.76518e-06 0.00831507
0.00201489 0.00200301 0.0080329
0.00429498 0.00253675 0.00999648
0.00695793 0.00645498 0.00694202
0.0064132 0.00618946 0.00517959
0.0022625 0.00218544 0.00514579
0 0.00143586 0.00417514
0.00159496 0.0034664 0.00403699
0.00684219 0.00320319 0.00315794
0.00775635 0.00222508 0.00505857
0 0.00270918 0.00154168
0.00416166 0.00143304 -9.66466e-07
0.00501236 0.00219351 0.00219581
0.0039629 0.00352962 0.00160177
0.00134738 -4.04392e-07 0.00405986
0.00419037 -3.14718e-06 0.00168666
0.00262262 0.00695266 -2.37183e-07
0.00193566 0.00805312 0.00194467
0.0040842 0.00625047 0.00164376
0.0080027 0.00799662 0.00799035
0.00797307 0.0048268 0.00801536
0.00839094 0.00609165 0.0059414
0.00999454 0.0088414 0.00418394
0.00757318 0.00764536 0.0049588
0.00855725 0.00999189 0.00416059
0.00796883 0.00798183 0.00201129
0.00353983 0.0030388 0.00695844
0.00444321 0.00366536 0.00832151
0.00389875 0.00160404 0.00596782
0.00500407 0.00767257 0.00767388
0.0019887 0.00800844 0.00798947
0.00282328 0.00999858 0.00712677
0.00391265 0.00840218 0.00595672
0 0.00695361 0.00262895
0.00164564 0.00623968 0.00408775
0 0.0040177 0.00850214
0.00231551 0.00498637 0.00766116
0.0014343 0.00417478 0.00999986
0.00717872 0.0071267 0.00999153
0.00612165 0.00597702 0.00841283
0.00205011 0.00794186 0.00474166
0.00304258 0.0069441 0.00646718
0.00158664 0.00607867 0.00592586
0.00999826 0.00580011 0.00830455
0 0.00718191 0.00711644
0.00158304 0.00577386 -1.71672e-08
0 0.00577432 0.00158701
0.00999771 0.00717345 0.00710448
0.00287207 0.00335078 0.00999843
0.00998608 0.00142743 0.00416577
0.00804474 0.00195583 0.00197406
0.00839645 0.00351505 0.0039923
0.0037309 0.00165131 0.00412732
0.00150716 0.00999972 0.00581497
0.00281669 -1.46526e-06 0.00712703
0.00611741 0.00417811 0.00837133
0.00999252 0.00726541 0.00418616
0.00854591 -7.15608e-06 0.00416103
0.00334169 0.00287181 -5.24379e-07
0.00270676 0.00154054 0.00999852
0.00282398 -1.70511e-06 0.00283149
0.00480101 0.00519778 0.00755157
0.00315957 0.00314793 0.00316669
0 0.00849157 0.00581511
0.00486733 0.00367388 0.00378435
0.00153699 0.00270886 7.51765e-10
0.00580021 0.00832188 0.00999389
0.00598005 0.00999544 0.00850033
0.00421012 0.00999729 0.00831508
0.00401759 0.00850148 0.00999677
0.00999696 0.0084827 0.00580418
0.00314504 0.00683488 0.0031502
0 0.00748929 0.00137438
0.00137141 0.00748904 3.44754e-08
0 0.00287343 0.00335182
0 0.00580816 0.00831736
0 0.00429792 0.00253898
0.00253183 0.00429696 -1.96836e-07
0.00143448 0.00581939 0.00999986
0.00517497 0.00647297 0.00639753
0.00360422 0.00651105 0.00823228
0.00694733 0.00262264 0.00999207
0.00801572 0.00195246 0.00802699
0.00695509 -5.77468e-06 0.00307787
0.00600889 0.00166036 0.00360974
0.0099862 0.00286517 0.00334302
0 0.00140616 0.00256446
0.00636982 0.00822372 0.00641641
0.00580221 0.00143111 -2.06672e-06
0.00602425 0.00354816 0.0016003
0.00315209 0.00999836 0.00582433
0.00855481 0.00999205 0.005825
0.00255561 0.00140486 -2.43466e-07
0.00596031 -4.76314e-06 0.00149149
0.00627346 0.00828361 0.00361383
0.00854347 -7.0721e-06 0.00582524
0.00619807 0.00166877 0.00636089
0.00140409 0.00256417 0.00999989
0.00710319 0.00717652 -3.7986e-06
0.00515839 0.00768696 0.00216679
0.00593221 0.00608977 0.00159905
0 0.00686719 0.00578184
0.0099834 0.00139761 0.0025562
0.00177317 0.00361027 0.00640762
0.00999153 0.00847783 0.00261502
0.00840334 0.00618275 0.00412602
0.00597047 0.00999506 0.00149094
0.00695984 -5.44153e-06 0.00692056
0.009989 0.00142715 0.00580892
0.00838923 0.00356693 0.00605285
0.00150428 -4.41098e-07 0.00581507
0 0.0013659 0.00748679
0.00136608 -3.03226e-07 0.0075289
0.00999482 0.00685865 0.00577102
0.00580456 0.00848724 -2.50033e-06
0 0.0075208 0.00859127
0.00136524 0.00748669 0.00999976
0.00422542 0.00820347 0.00362704
0.00859075 0.00999208 0.00750252
0.0100004 0.00862137 0.00751405
0.00577024 0.00158303 0.00999404
0.00725722 0.00418305 0.00999146
0 0.0057735 0.00666667
0.00136872 0.00999968 0.00752885
0 0.00863025 0.00752641
0.00856993 -7.35266e-06 0.00250131
0.00998956 0.00694476 0.00262034
0.00844748 0.00633535 0.00215702
0.00850933 0.00581741 0.00998912
0.00748495 0.00136862 0.00999095
0.00857934 -7.04968e-06 0.0075027
0.009992 0.00135766 0.00747465
0 0.00143551 0.00581971
0.0059697 -4.36684e-06 0.00850047
0.00420181 -3.01979e-06 0.00339855
0.00792089 0.00470173 0.00202944
0.0099864 0.00428976 0.00253072
0.00422562 0.00999718 0.00666454
0.0028304 0.00999866 0.00283144
0.00130862 -4.30653e-07 0.00241819
0 0.00727418 0.00419576
0.0099952 0.00576547 0.00665511
0.00696617 0.00999391 0.00307731
0.00750929 0.00863123 0.00999087
0 0.00574334 0.00336387
0 0.0043297 0.00416652
0.00686912 0.00577963 0.00999209
0.00999268 0.00301415 0.00690357
0.00421692 -2.83134e-06 0.00666475
0.00247758 0.00999875 0.00861068
0.00746696 0.00135977 -3.81948e-06
0.00577434 0.00666327 0.00999389
0.0100009 0.00751236 0.00857826
0.00861021 0.0075468 0.00998886
0.00689767 0.00301705 -3.25651e-06
0.00335536 0.00574199 -5.60429e-07
0.00751436 0.00862389 -4.45415e-06
0.00750605 0.00999301 0.00138258
0.00576974 0.00686343 -2.45088e-06
0.00696488 0.00636589 0.00302917
0.00749485 -6.43169e-06 0.00138336
0.00288346 0.00499836 0.00999831
0.00432983 0.00583152 0.00999621
0.00432808 0.0041647 0.00999623
0.00751746 0.00999348 0.00860742
0.00247171 -1.09655e-06 0.00861089
0.00998922 0.00573522 0.003355
0 0.00302218 0.00691532
0.00999662 0.00400982 0.00848924
0.00848405 0.00401095 -5.06511e-06
0.00998315 0.00270077 0.00153415
0 0.00244495 0.00857025
0.00244583 0.00856945 0.0099986
0.00750633 -5.96416e-06 0.00860749
0.00848417 0.00261738 0.00998914
0.00884993 0.00418714 0.00998844
0.00566786 0.00999566 0.00582973
0.00518108 0.00758055 0.00502981
0.0056379 0.00999561 0.00421229
0.00697074 0.00999414 0.00692039
0.00302224 0.00691437 0.00999801
0.00415522 0.00432762 -1.05869e-06
0.00282727 -1.7167e-06 0.00440406
0.00314504 -1.86995e-06 0.00582466
0.00998416 0.00418708 0.00111773
0.00363189 0.0083357 0.00158716
0.00998911 0.00432157 0.00415697
0.00665219 0.00576886 -3.11465e-06
0.00858134 0.00999171 0.00250059
0 0.00848692 0.00262374
0.00135013 0.00999978 0.00405984
0 0.00885053 0.00419359
0.00418596 0.00884781 -1.30108e-06
0.00419882 0.00999713 0.00168631
0.00498905 0.00478865 0.00237693
0.00720311 0.00451642 -3.62445e-06
0.00562783 -4.36539e-06 0.00421279
0.00565786 -4.28223e-06 0.00583003
0.0013113 0.00999979 0.00241807
0.00855043 0.00243792 -5.02755e-06
0.00999483 0.00451378 0.00720756
0.00711099 0.00999383 0.00499485
0.00574087 0.00336053 0.00999411
0.00244979 -1.45671e-06 0.00135622
0.0099951 0.00243694 0.00855732
0.00239173 0.00479062 0.0049995
0.00581871 0.00432637 -2.34127e-06
0.00830134 0.00580142 -5.10972e-06
0.00547848 0.00999596 0.0072164
0.00999209 0.0043221 0.00582247
0.00539654 0.00999581 0.00277319
0.00709992 -5.73968e-06 0.00499527
0.00283359 0.00999865 0.00440392
0 0.00452174 0.00721958
0.00452206 0.00721789 0.00999596
0.00546864 -3.9981e-06 0.00721644
0.00359733 0.00507248 0.00359566
0.00424866 0.00999716 0.00500655
0.00423979 -2.9111e-06 0.00500698
0.00366682 0.00521547 0.00617341
0 0.005744 0.00499998
0 0.00433013 0.00583333
0.0049881 0.00574119 -1.70888e-06
0.00497737 0.00633647 0.00355181
0.00538678 -4.21495e-06 0.0027736
0.00999209 0.00573602 0.00498973
0.0036862 0.00640636 0.00484297
0.00574312 0.00499687 0.00999402
0.0099865 0.00576601 0.00157928
0 0.00666667 0
0.00857725 0.00751357 -5.62873e-06
0.00332096 -2.39383e-06 -3.90477e-07
0 0.01 0.00666667
0.00500405 0.00999635 0.00999531
0 0.00288419 0.00499914
0.00998831 0.00748023 0.00136662
0.0099854 0.00665798 -7.50471e-06
0 0.005 0.01
0.00498475 0.00288104 -1.56961e-06
0 0.005 0
0.0099833 -8.5861e-06 0.00332465
0.0100009 0.00998996 0.00665491
0.0041867 0.00727195 -1.23112e-06
0.00998904 0.00287609 0.00498898
0.00498311 -4.04286e-06 -1.3667e-06
0 0 0.00666667
0.00379273 0.00361513 0.00522522
0.0049946 -3.81645e-06 0.00999503
0.00998912 -8.46555e-06 0.00665521
0 0 0.005
0.0087708 0.00999126 0.00121378
0.00998976 0.00877043 0.00121221
0.00998613 -8.53097e-06 0.00498992
0.00998359 0.00499148 -7.24858e-06
0.00121606 0.0012197 3.06868e-09
0 0.00122008 0.00122008
0 0.00333333 0.01
0 0.00666667 0.01
0.00876763 0.00877179 -5.98725e-06
0.00999496 0.00998966 0.00332404
0.00421052 0.00999717 0.00339832
0.0100027 0.00665847 0.00998604
0 0.00333333 0
0 0.00122008 0.00877992
0.00121728 -3.46116e-07 0.00877968
0.00121797 0.0012198 0.00999995
0.00878369 0.00999187 0.00876893
0.00121963 0.00877974 0.0099998
0 0.00877992 0.00877992
0.0100029 0.00877101 0.00876673
0.00665694 0.00999391 -3.74114e-06
0.00998107 0.00121143 0.00121278
0.00121975 0.00999965 0.00877975
0.00878439 0.00877257 0.00998849
0.0100007 0.0049921 0.00998606
0 0 0.00333333
0.00664647 -5.55054e-06 -2.87049e-06
0.00875932 -7.59076e-06 0.00121459
0.00120733 -4.70363e-07 0.00121171
0 0.00877992 0.00122008
0.00121773 0.00877957 3.20349e-08
0.00120984 0.00999971 0.00121142
0.0099942 0.00121179 0.00876676
0.00877579 0.00121298 0.00998846
0.00666099 -5.37485e-06 0.00999211
0.00875881 0.00121264 -5.20714e-06
0.00877225 -7.25178e-06 0.00876894
0.00998174 0.00332491 -7.05472e-06
0.00333597 0.00999804 0.00999774
0.00245557 0.00999893 0.00135595
0.00667166 0.00999457 0.00999244
0.00999887 0.00332548 0.0099861
0 0.01 0.005
0.00261843 0.00848574 -3.17845e-07
0.00999782 0.00998981 0.00498968
0 0.01 0.00333333
0 0.00166667 0
0.0099806 -8.73677e-06 0.00165915
0 0.00166667 0.01
0 0.00833333 0
0.00998763 0.00832387 -7.51353e-06
0.00999218 -8.45642e-06 0.00832041
0.00999225 0.00998958 0.00165842
0.0100039 0.00999008 0.00832033
0.00166738 0.0099992 0.00999942
0 0.01 0.00833333
0.00832278 0.00999166 -5.71173e-06
0.0083113 -7.29155e-06 -4.64394e-06
0.00832784 -7.00086e-06 0.00998908
0.00833919 0.0099924 0.00998936
0 0 0.00833333
0.0100047 0.00832467 0.00998603
0.00166023 -9.39105e-07 -4.67728e-08
0 0 0.00166667
0.00332818 0.00999795 -8.06527e-07
0.00999706 0.00165839 0.00998604
0.00997992 0.00165794 -6.92961e-06
0.00166336 -7.08717e-07 0.00999949
0.00166421 0.00999932 -1.71703e-07
0 0.01 0.00166667
0.0100069 0.00999027 0.00998608
0 0 0.01
0.00998979 0.00998942 -7.76147e-06
0.00999524 -8.60419e-06 0.0099859
0 0.01 0.01
0.00997813 -8.73087e-06 -6.8223e-06
0 0.01 0
0 0 0
0.00499225 0.00999605 -2.03639e-06
0.00332902 -2.29521e-06 0.00999744
0 0.00833333 0.01

CELLS 343 686
1 0
1 1
1 2
1 3
1 4
1 5
1 6
1 7
1 8
1 9
1 10
1 11
1 12
1 13
1 14
1 15
1 16
1 17
1 18
1 19
1 20
1 21
1 22
1 23
1 24
1 25
1 26
1 27
1 28
1 29
1 30
1 31
1 32
1 33
1 34
1 35
1 36
1 37
1 38
1 39
1 40
1 41
1 42
1 43
1 44
1 45
1 46
1 47
1 48
1 49
1 50
1 51
1 52
1 53
1 54
1 55
1 56
1 57
1 58
1 59
1 60
1 61
1 62
1 63
1 64
1 65
1 66
1 67
1 68
1 69
1 70
1 71
1 72
1 73
1 74
1 75
1 76
1 77
1 78
1 79
1 80
1 81
1 82
1 83
1 84
1 85
1 86
1 87
1 88
1 89
1 90
1 91
1 92
1 93
1 94
1 95
1 96
1 97
1 98
1 99
1 100
1 101
1 102
1 103
1 104
1 105
1 106
1 107
1 108
1 109
1 110
1 111
1 112
1 113
1 114
1 115
1 116
1 117
1 118
1 119
1 120
1 121
1 122
1 123
1 124
1 125
1 126
1 127
1 128
1 129
1 130
1 131
1 132
1 133
1 134
1 135
1 136
1 137
1 138
1 139
1 140
1 141
1 142
1 143
1 144
1 145
1 146
1 147
1 148
1 149
1 150
1 151
1 152
1 153
1 154
1 155
1 156
1 157
1 158
1 159
1 160
1 161
1 162
1 163
1 164
1 165
1 166
1 167
1 168
1 169
1 170
1 171
1 172
1 173
1 174
1 175
1 176
1 177
1 178
1 179
1 180
1 181
1 182
1 183
1 184
1 185
1 186
1 187
1 188
1 189
1 190
1 191
1 192
1 193
1 194
1 195
1 196
1 197
1 198
1 199
1 200
1 201
1 202
1 203
1 204
1 205
1 206
1 207
1 208
1 209
1 210
1 211
1 212
1 213
1 214
1 215
1 216
1 217
1 218
1 219
1 220
1 221
1 222
1 223
1 224
1 225
1 226
1 227
1 228
1 229
1 230
1 231
1 232
1 233
1 234
1 235
1 236
1 237
1 238
1 239
1 240
1 241
1 242
1 243
1 244
1 245
1 246
1 247
1 248
1 249
1 250
1 251
1 252
1 253
1 254
1 255
1 256
1 257
1 258
1 259
1 260
1 261
1 262
1 263
1 264
1 265
1 266
1 267
1 268
1 269
1 270
1 271
1 272
1 273
1 274
1 275
1 276
1 277
1 278
1 279
1 280
1 281
1 282
1 283
1 284
1 285
1 286
1 287
1 288
1 289
1 290
1 291
1 292
1 293
1 294
1 295
1 296
1 297
1 298
1 299
1 300
1 301
1 302
1 303
1 304
1 305
1 306
1 307
1 308
1 309
1 310
1 311
1 312
1 313
1 314
1 315
1 316
1 317
1 318
1 319
1 320
1 321
1 322
1 323
1 324
1 325
1 326
1 327
1 328
1 329
1 330
1 331
1 332
1 333
1 334
1 335
1 336
1 337
1 338
1 339
1 340
1 341
1 342

CELL_TYPES 343
1
1
1
1
1
1
1
1
1
1
1
1
1
1
1
1
1
1
1
1
1
1
1
1
1
1
1
1
1
1
1
1
1
1
1
1
1
1
1
1
1
1
1
1
1
1
1
1
1
1
1
1
1
1
1
1
1
1
1
1
1
1
1
1
1
1
1
1
1
1
1
1
1
1
1
1
1
1
1
1
1
1
1
1
1
1
1
1
1
1
1
1
1
1
1
1
1
1
1
1
1
1
1
1
1
1
1
1
1
1
1
1
1
1
1
1
1
1
1
1
1
1
1
1
1
1
1
1
1
1
1
1
1
1
1
1
1
1
1
1
1
1
1
1
1
1
1
1
1
1
1
1
1
1
1
1
1
1
1
1
1
1
1
1
1
1
1
1
1
1
1
1
1
1
1
1
1
1
1
1
1
1
1
1
1
1
1
1
1
1
1
1
1
1
1
1
1
1
1
1
1
1
1
1
1
1
1
1
1
1
1
1
1
1
1
1
1
1
1
1
1
1
1
1
1
1
1
1
1
1
1
1
1
1
1
1
1
1
1
1
1
1
1
1
1
1
1
1
1
1
1
1
1
1
1
1
1
1
1
1
1
1
1
1
1
1
1
1
1
1
1
1
1
1
1
1
1
1
1
1
1
1
1
1
1
1
1
1
1
1
1
1
1
1
1
1
1
1
1
1
1
1
1
1
1
1
1
1
1
1
1
1
1
1
1
1
1
1
1
1
1
1
1
1
1
1
1
1
1
1
1
1
1
1
1
1
1
1
1
1
1
1
1

POINT_DATA 343
FIELD FieldData 8

NodeID_(#) 1 343 int
0
1
2
3
4
5
6
7
8
9
10
11
12
13
14
15
16
17
18
19
20
21
22
23
24
25
26
27
28
29
30
31
32
33
34
35
36
37
38
39
40
41
42
43
44
45
46
47
48
49
50
51
52
53
54
55
56
57
58
59
60
61
62
63
64
65
66
67
68
69
70
71
72
73
74
75
76
77
78
79
80
81
82
83
84
85
86
87
88
89
90
91
92
93
94
95
96
97
98
99
100
101
102
103
104
105
106
107
108
109
110
111
112
113
114
115
116
117
118
119
120
121
122
123
124
125
126
127
128
129
130
131
132
133
134
135
136
137
138
139
140
141
142
143
144
145
146
147
148
149
150
151
152
153
154
155
156
157
158
159
160
161
162
163
164
165
166
167
168
169
170
171
172
173
174
175
176
177
178
179
180
181
182
183
184
185
186
187
188
189
190
191
192
193
194
195
196
197
198
199
200
201
202
203
204
205
206
207
208
209
210
211
212
213
214
215
216
217
218
219
220
221
222
223
224
225
226
227
228
229
230
231
232
233
234
235
236
237
238
239
240
241
242
243
244
245
246
247
248
249
250
251
252
253
254
255
256
257
258
259
260
261
262
263
264
265
266
267
268
269
270
271
272
273
274
275
276
277
278
279
280
281
282
283
284
285
286
287
288
289
290
291
292
293
294
295
296
297
298
299
300
301
302
303
304
305
306
307
308
309
310
311
312
313
314
315
316
317
318
319
320
321
322
323
324
325
326
327
328
329
330
331
332
333
334
335
336
337
338
339
340
341
342

Component_(#) 1 343 int
0
0
0
0
0
0
0
0
0
0
0
0
0
0
0
0
0
0
0
0
0
0
0
0
0
0
0
0
0
0
0
0
0
0
0
0
0
0
0
0
0
0
0
0
0
0
0
0
0
0
0
0
0
0
0
0
0
0
0
0
0
0
0
0
0
0
0
0
0
0
0
0
0
0
0
0
0
0
0
0
0
0
0
0
0
0
0
0
0
0
0
0
0
0
0
0
0
0
0
0
0
0
0
0
0
0
0
0
0
0
0
0
0
0
0
0
0
0
0
0
0
0
0
0
0
0
0
0
0
0
0
0
0
0
0
0
0
0
0
0
0
0
0
0
0
0
0
0
0
0
0
0
0
0
0
0
0
0
0
0
0
0
0
0
0
0
0
0
0
0
0
0
0
0
0
0
0
0
0
0
0
0
0
0
0
0
0
0
0
0
0
0
0
0
0
0
0
0
0
0
0
0
0
0
0
0
0
0
0
0
0
0
0
0
0
0
0
0
0
0
0
0
0
0
0
0
0
0
0
0
0
0
0
0
0
0
0
0
0
0
0
0
0
0
0
0
0
0
0
0
0
0
0
0
0
0
0
0
0
0
0
0
0
0
0
0
0
0
0
0
0
0
0
0
0
0
0
0
0
0
0
0
0
0
0
0
0
0
0
0
0
0
0
0
0
0
0
0
0
0
0
0
0
0
0
0
0
0
0
0
0
0
0
0
0
0
0
0
0
0
0
0
0
0
0
0
0
0
0
0
0
0
0
0
0
0
0
0
0
0
0
0
0

NodalMass_(kg) 1 343 double
3.15563e-06
1.41304e-05
2.20912e-06
1.71484e-05
8.42e-06
9.09306e-06
9.93033e-06
7.52198e-06
6.81096e-06
5.58223e-06
3.10888e-06
1.07575e-05
4.87011e-06
1.64955e-05
3.0246e-06
8.05984e-06
6.703e-06
1.0877e-05
4.18978e-06
8.16106e-06
6.14143e-06
1.17902e-05
2.23114e-06
4.25176e-06
1.09915e-05
7.41467e-06
4.21871e-06
3.92484e-06
3.08766e-06
1.31268e-05
7.72627e-06
1.65404e-05
1.19037e-05
7.29666e-06
3.81683e-06
1.11001e-05
3.81317e-06
1.39137e-05
6.37414e-06
8.00975e-06
7.6712e-06
1.18847e-05
1.6399e-05
2.78633e-06
8.93599e-06
2.58087e-06
7.57362e-06
4.23241e-06
1.31286e-05
3.80168e-06
2.7746e-06
7.16776e-06
1.21307e-05
5.11765e-06
8.19728e-06
4.58094e-06
2.79503e-06
3.26126e-06
4.12443e-06
2.11915e-06
3.35177e-06
3.61669e-06
1.56838e-05
7.33679e-06
8.24695e-06
5.00369e-06
2.82625e-06
7.20276e-06
3.26815e-06
4.18751e-06
2.02785e-06
2.42152e-06
3.11835e-06
5.97459e-06
5.87101e-06
4.09374e-06
5.45463e-06
2.28825e-06
4.49759e-06
4.38192e-06
4.50892e-06
4.39234e-06
4.27273e-06
5.32031e-06
1.53201e-06
2.38869e-06
2.02885e-06
4.38798e-06
3.17972e-06
3.14298e-06
4.61567e-06
5.87645e-06
8.18088e-06
2.48341e-06
1.53815e-05
3.49683e-06
7.35227e-06
2.01314e-06
2.0408e-06
7.98183e-06
4.41293e-06
7.1389e-06
1.20123e-06
5.03343e-06
1.61257e-06
4.12601e-06
8.73748e-06
4.37849e-06
7.97173e-06
2.13557e-06
3.38137e-06
9.48623e-06
7.40262e-06
1.80226e-06
2.10222e-06
7.98889e-06
1.87983e-06
7.44814e-06
4.19782e-06
2.37156e-06
4.31705e-06
6.06441e-06
4.30905e-06
2.16843e-06
1.8986e-06
1.81294e-06
3.89762e-06
2.44299e-06
1.65628e-06
8.01374e-06
1.64513e-06
2.3931e-06
3.01363e-06
2.99431e-06
1.36541e-06
1.87293e-06
2.09622e-06
1.94762e-06
1.87618e-06
6.37913e-06
4.58628e-06
2.02767e-06
1.61999e-06
2.41284e-06
3.8865e-06
4.44973e-06
2.29839e-06
1.17349e-05
3.11811e-06
1.354e-06
3.45063e-06
1.81846e-06
2.9382e-06
1.37381e-06
2.41464e-06
2.10451e-06
2.63927e-06
2.14166e-06
1.7943e-06
3.19976e-06
1.36989e-06
2.43489e-06
2.08158e-06
1.3601e-06
2.17203e-06
1.89924e-06
3.16996e-06
2.6119e-06
2.37677e-06
1.60225e-06
1.90684e-06
5.49206e-06
1.87878e-06
3.14313e-06
2.97301e-06
1.18454e-06
1.89263e-06
2.04166e-06
2.73572e-06
2.42405e-06
3.23083e-06
3.19752e-06
3.2142e-06
1.94492e-06
1.61196e-06
1.86876e-06
3.22435e-06
2.1114e-06
2.96917e-06
6.15288e-06
2.3097e-06
2.39729e-06
2.38029e-06
2.64508e-06
1.66557e-06
1.82377e-06
2.06583e-06
5.73271e-06
2.08467e-06
2.18324e-06
2.43522e-06
3.1188e-06
3.17316e-06
2.05447e-06
1.9592e-06
3.05718e-06
6.44327e-06
2.08796e-06
2.72615e-06
2.15709e-06
1.86812e-06
2.0028e-06
2.10999e-06
2.88994e-06
2.3222e-06
2.3979e-06
1.97629e-06
6.4127e-06
2.16225e-06
3.29198e-06
2.10223e-06
2.66566e-06
1.94415e-06
2.91865e-06
2.58116e-06
2.11703e-06
2.09534e-06
1.91719e-06
7.06046e-06
2.25203e-06
2.06378e-06
6.28159e-06
2.12147e-06
2.90924e-06
2.12921e-06
6.4487e-06
1.41701e-06
2.0682e-06
6.58062e-06
2.52584e-06
2.39732e-06
7.42191e-07
2.22368e-06
7.06751e-07
7.00657e-07
8.93749e-07
2.53536e-06
2.26535e-06
1.33607e-06
7.84725e-07
2.32303e-06
6.06694e-07
6.68276e-07
6.84307e-07
2.51242e-06
2.31629e-06
7.8367e-07
6.80839e-07
6.22692e-06
6.7471e-07
6.65305e-07
7.01158e-07
1.8232e-06
1.90695e-06
6.86722e-07
7.04792e-07
1.86445e-06
2.28572e-06
6.8045e-07
7.16005e-07
1.82373e-06
6.01079e-07
2.02791e-06
7.4579e-07
5.74423e-07
1.80052e-06
1.454e-06
2.2702e-06
1.80636e-06
2.15356e-06
1.79089e-06
1.79456e-06
6.8231e-07
2.24737e-06
1.45239e-06
1.79556e-06
6.97875e-07
6.24265e-07
6.62717e-07
1.44627e-06
1.40138e-06
2.15258e-06
1.82851e-06
1.3994e-06
1.43932e-06
2.19226e-06
6.97732e-07
1.77726e-06
1.79162e-06
6.54258e-07
7.3397e-07
2.34895e-06
7.10392e-07
6.56982e-07
6.26314e-07
2.18926e-06
6.12493e-07
6.03901e-07
5.92831e-07
5.12031e-07
5.11667e-07
4.9467e-07
4.97016e-07
4.96269e-07
5.33079e-07
4.94191e-07
4.97855e-07
4.86862e-07
4.90626e-07
4.94649e-07
4.94954e-07
4.91922e-07
4.89615e-07
4.96354e-07
4.95189e-07
4.82188e-07
1.10854e-06
5.3299e-07
5.44763e-07
5.36655e-07
5.15417e-07
5.01772e-07
5.53774e-07
5.53774e-07
5.53774e-07
5.53774e-07
5.53774e-07
5.53774e-07
5.50785e-07
5.50785e-07
7.45291e-07
7.11668e-07
4.9897e-07

NodalForce_(N) 3 343 double
1.18463e-06 -3.38923e-07 3.83783e-08
1.16524e-05 -4.71107e-06 1.67552e-06
-0.000155107 5.94716e-05 0.00023286
-2.95477e-06 -5.12649e-06 2.13413e-06
-1.5453e-05 -2.26108e-05 7.89661e-06
-8.46999e-06 -2.11845e-05 8.61773e-06
1.00934e-05 -5.18973e-05 2.06698e-05
1.16764e-05 -2.62263e-05 1.01855e-05
-1.29549e-05 -2.98886e-05 1.20535e-05
4.67039e-06 -1.16698e-05 4.48059e-06
-1.21365e-05 -6.50847e-06 2.56541e-06
-3.58427e-05 -3.12182e-05 1.19608e-05
-2.14483e-05 -1.07303e-05 3.45773e-06
-1.41954e-05 -3.83544e-06 2.56593e-06
-8.51378e-06 -5.48876e-06 2.67497e-06
1.67568e-05 -3.32967e-05 1.38451e-05
1.66872e-05 -2.3883e-05 9.17552e-06
-6.15331e-06 -4.05687e-06 1.64086e-06
-0.000477041 0.00019024 0.000211711
2.97246e-07 -9.44863e-07 1.39931e-07
-8.62096e-07 -2.79086e-05 1.06739e-05
-2.81575e-05 -6.90805e-05 2.66057e-05
-0.000154205 -0.000613421 -0.000307802
-2.28999e-06 -9.46175e-06 3.19377e-06
-9.99787e-06 -3.05109e-05 1.31011e-05
5.42562e-06 -1.08086e-05 5.60061e-06
-3.35368e-06 -4.02295e-07 3.57849e-07
-9.35445e-06 -8.7751e-06 3.63102e-06
7.24756e-06 -1.6826e-06 7.39029e-07
2.06015e-05 -2.59268e-06 1.23149e-06
2.08795e-05 -9.6802e-06 5.50099e-06
6.43739e-05 -9.19313e-05 3.81259e-05
-6.20433e-06 -6.64421e-05 2.82504e-05
1.82342e-05 -4.50625e-05 1.80703e-05
2.9646e-05 -3.27165e-05 1.21778e-05
5.54236e-05 -5.65701e-05 2.11597e-05
3.43243e-05 -2.5296e-05 8.84728e-06
0.000100368 -8.0365e-05 3.03425e-05
-6.6091e-06 -6.80054e-06 2.65737e-06
-1.18196e-05 -1.30227e-05 6.84151e-06
-1.7322e-05 -1.27723e-05 3.86441e-06
2.8794e-05 -2.56611e-05 1.083e-05
1.34487e-05 -3.80697e-06 5.64924e-07
7.84473e-06 -1.95519e-06 2.0956e-07
2.66461e-05 -1.22684e-05 3.19247e-06
0.000235267 8.33953e-05 -0.000168623
5.02375e-06 -1.52156e-06 3.94892e-07
0.000275985 0.000313796 0.000260142
2.76613e-06 -3.88703e-06 1.64006e-06
-6.98594e-07 -4.80029e-07 8.53836e-08
4.3521e-06 -1.22658e-05 5.45082e-06
4.85996e-06 -2.24835e-05 1.056e-05
1.4484e-05 -2.3523e-06 5.57144e-07
6.1634e-06 -2.82008e-06 9.38516e-07
3.33005e-06 -1.15528e-06 4.19596e-07
5.07523e-06 -3.85121e-05 1.58943e-05
5.08181e-05 0.000283447 0.000252084
3.2299e-06 -7.46912e-07 1.30525e-07
-0.000148492 -9.54118e-05 -0.000149378
7.90807e-06 -1.78042e-05 7.21783e-06
-4.3704e-06 -2.25016e-06 1.36463e-06
-9.96972e-06 -3.29446e-05 1.2809e-05
-1.70458e-05 -0.000100264 3.91586e-05
5.49657e-08 -4.76961e-05 1.88449e-05
-1.43788e-05 -1.30211e-05 4.01558e-06
6.62713e-06 -1.41387e-07 -8.6503e-08
-8.0221e-06 -2.80272e-06 8.17678e-07
-1.04085e-05 -2.3439e-05 1.08068e-05
1.81139e-05 -2.78031e-05 1.07039e-05
-2.06992e-05 -3.0256e-05 1.17057e-05
1.61827e-06 -2.18987e-06 9.1611e-07
-5.53592e-06 -1.91821e-06 9.42826e-07
-6.81467e-06 -3.34719e-06 9.02115e-07
-2.82175e-07 -1.07074e-05 5.27137e-06
-5.63213e-07 -4.74357e-06 1.85092e-06
0.0001483 0.000127879 0.000256525
-9.24331e-08 -1.17122e-05 4.6958e-06
6.06779e-07 -2.60103e-07 7.46847e-08
1.08509e-05 -1.36546e-05 5.87538e-06
2.21224e-05 -1.45278e-05 6.15456e-06
1.57523e-05 -7.69203e-06 2.98203e-06
7.51253e-06 -6.88952e-06 2.59679e-06
2.69861e-05 -3.61871e-05 1.39957e-05
9.52817e-06 -3.58693e-06 1.45667e-06
-0.000129153 -0.000480859 3.919e-05
2.78374e-06 -8.58855e-08 -1.94248e-08
3.88178e-05 -0.000219945 0.000103188
0.000376987 -0.000128257 7.15993e-05
-4.64978e-05 -2.41617e-05 -0.000113521
4.2657e-06 -1.75017e-06 7.74111e-07
1.63106e-07 -3.41167e-07 9.89312e-08
1.06914e-05 -1.28832e-05 5.14356e-06
5.09305e-06 -6.3233e-06 3.78879e-06
-1.04103e-05 -1.1552e-05 4.93222e-06
-6.81517e-05 -9.51151e-05 3.72747e-05
-1.41207e-05 -1.81516e-05 6.87145e-06
-1.59428e-05 -2.8239e-05 1.0533e-05
-5.42533e-07 -1.78871e-05 7.0681e-06
-6.83255e-05 -9.82606e-05 -9.29132e-05
3.34701e-05 -2.91838e-05 1.03684e-05
-4.08546e-06 -1.69971e-05 6.4861e-06
5.55856e-06 -2.55975e-05 1.10781e-05
3.96757e-06 -1.20874e-06 2.92027e-07
4.03823e-05 -3.30653e-05 1.19995e-05
-3.5117e-07 -1.47148e-06 4.7317e-07
-1.3091e-05 -1.67097e-05 7.00013e-06
4.90892e-05 -3.19912e-05 1.12398e-05
-2.56399e-05 -3.13713e-05 1.19762e-05
-2.77794e-05 -3.15338e-05 1.13251e-05
-1.20384e-06 -8.16364e-08 7.29873e-08
2.23733e-05 -1.59224e-05 6.40678e-06
4.58107e-05 -2.35354e-05 9.1045e-06
2.87405e-05 -2.29581e-05 1.03521e-05
1.31743e-06 -0.000240272 -0.00011104
-4.01348e-06 -1.92846e-05 7.49503e-06
-1.16742e-06 -1.369e-06 8.13418e-07
1.53211e-05 -1.62376e-05 6.11462e-06
2.72617e-05 -4.68838e-05 1.81651e-05
3.50686e-05 -1.52202e-05 5.20255e-06
-1.43118e-05 -1.22354e-05 4.27806e-06
-1.59553e-05 -3.90816e-05 1.52425e-05
-6.87939e-06 -3.88807e-05 1.56786e-05
-3.92345e-06 -6.62449e-07 2.5982e-07
0.000241132 0.000254194 -0.00011595
-1.69611e-06 -2.92358e-07 2.86273e-08
7.34725e-06 -1.52922e-05 6.04043e-06
2.80666e-05 -1.29032e-05 5.04841e-06
-0.000155883 -0.00032037 8.08727e-05
4.43089e-07 -1.31674e-07 4.60804e-08
3.04405e-05 -1.33022e-05 3.5365e-06
1.1641e-05 -1.08631e-05 4.1626e-06
1.32682e-05 -2.00676e-05 8.01107e-06
-1.49735e-05 -1.07012e-05 4.37321e-06
-6.96801e-06 -1.39227e-05 6.31547e-06
-0.000383754 -0.000627778 -9.49143e-05
1.90745e-06 -7.49148e-08 2.99162e-08
1.11241e-05 -0.000189482 -0.000277909
-7.86295e-06 -1.43522e-05 5.59552e-06
1.11887e-05 -1.60785e-05 6.21223e-06
3.19231e-05 -4.12056e-05 1.58679e-05
-3.16422e-07 -2.85407e-05 1.22897e-05
-1.19247e-05 -1.14864e-05 4.56206e-06
-1.10417e-05 -1.18004e-05 4.32723e-06
-1.14815e-05 -2.18265e-05 8.54544e-06
-0.000408178 3.28094e-05 0.000171951
-2.76835e-05 -1.76043e-05 6.33289e-06
-7.33358e-06 -5.25179e-06 1.72149e-06
3.07681e-05 -6.85076e-05 2.6949e-05
6.86897e-06 -2.73351e-05 1.06243e-05
5.85602e-06 -2.45413e-06 6.13929e-07
1.2796e-05 -2.60754e-06 4.96958e-07
-1.11231e-06 -1.97456e-07 1.29289e-07
9.59707e-05 -0.000205859 -0.000142094
2.69557e-06 -1.16286e-05 4.67251e-06
2.04833e-05 -1.13921e-05 3.73006e-06
7.33741e-06 -1.06559e-05 4.47401e-06
0.00029036 -0.000248947 0.000126148
-0.000912486 -1.94188e-05 0.000213574
-4.3231e-07 -7.18506e-06 3.44525e-06
-6.76974e-06 -2.79421e-05 1.11876e-05
-5.64455e-06 -3.09438e-06 8.5839e-07
5.18151e-06 -1.41909e-06 4.23085e-07
-1.93241e-06 -1.22275e-05 4.72295e-06
8.48094e-07 -3.7806e-06 1.8631e-06
7.3573e-06 -1.81231e-05 7.36811e-06
4.48309e-06 -1.20568e-05 5.11488e-06
3.25568e-06 -1.5185e-05 6.29489e-06
6.49504e-06 -2.13569e-06 1.26346e-06
2.07295e-05 -1.27149e-05 4.90157e-06
1.55831e-05 -8.81303e-06 3.09763e-06
1.01655e-05 -5.90531e-06 2.54741e-06
2.23633e-05 -2.38779e-05 9.42866e-06
-6.25864e-06 -1.13185e-05 4.4676e-06
-1.59151e-06 -1.65636e-06 1.24823e-06
-1.40442e-06 -3.91478e-06 2.51355e-06
-1.93368e-06 -1.73406e-06 1.06047e-06
1.11721e-05 -9.89184e-06 3.99346e-06
-5.38826e-06 -1.8167e-06 4.56867e-07
1.04319e-05 -2.36081e-05 9.1639e-06
4.57364e-06 -0.000608352 -0.000435807
-5.1675e-06 -2.75622e-05 1.13668e-05
9.09727e-06 -2.18053e-05 8.66286e-06
1.61305e-06 -2.90053e-05 1.11799e-05
8.79443e-05 -0.00039285 8.52161e-05
1.48467e-06 -9.52176e-07 3.67303e-07
-1.31458e-05 -1.11048e-05 4.00332e-06
-1.47947e-05 -2.13565e-05 8.74622e-06
-5.02463e-06 -1.4508e-05 6.09237e-06
1.72735e-05 -9.35293e-06 2.73759e-06
2.10566e-05 -1.46925e-05 4.85933e-06
1.52275e-05 -7.37691e-06 2.09574e-06
1.54618e-05 -1.09277e-05 3.73726e-06
6.93482e-07 -1.0426e-06 9.1073e-07
5.23922e-06 -4.02435e-06 2.19857e-06
-3.83432e-06 -1.89359e-06 5.67589e-07
-5.32374e-06 -2.3291e-06 7.0999e-07
5.84267e-06 -1.83131e-05 7.08989e-06
2.20197e-05 -7.58064e-06 3.09006e-06
2.79506e-06 -1.80881e-05 7.20294e-06
9.85087e-06 -9.03662e-06 3.86679e-06
2.42538e-05 -1.65001e-05 5.77391e-06
-0.000169464 3.15479e-05 0.000239048
3.73083e-06 -2.02286e-07 -5.92401e-08
-0.000133739 0.000174585 -0.000144175
1.0873e-05 -3.70928e-06 1.46099e-06
1.84427e-05 -5.9917e-06 1.84425e-06
1.06399e-05 -1.35451e-05 6.32072e-06
6.43946e-06 -1.04359e-05 4.33239e-06
-1.09459e-05 -1.00835e-05 3.4624e-06
-1.03122e-05 -7.96281e-06 2.51114e-06
2.48985e-06 -1.28454e-07 -5.96486e-08
1.34292e-06 -1.41976e-05 5.5734e-06
-3.13703e-07 -1.80014e-05 7.31334e-06
2.20227e-05 -1.38516e-05 4.58705e-06
-6.82221e-06 -6.97902e-06 3.34676e-06
-3.76738e-06 -1.99112e-06 7.38484e-07
-7.66536e-06 -1.75142e-05 7.06099e-06
2.6592e-06 -2.53646e-06 1.14059e-06
5.01861e-06 -7.06492e-06 3.28291e-06
1.75264e-05 -2.10044e-05 8.40319e-06
1.08325e-05 -6.0484e-06 2.11825e-06
9.6627e-07 -2.29366e-05 9.22812e-06
1.37354e-05 -5.83951e-06 1.65216e-06
-1.47741e-05 -1.54961e-05 5.71813e-06
8.7e-06 -1.87961e-06 2.65071e-07
-0.000301583 -4.2348e-05 -3.54299e-05
1.7997e-06 -3.36087e-06 1.76752e-06
-1.0026e-05 -6.59809e-06 2.07111e-06
6.99616e-06 -6.94219e-06 2.63376e-06
1.12365e-05 -4.20952e-06 9.60753e-07
-7.68095e-06 -4.75585e-06 1.39962e-06
3.13024e-06 -5.93824e-06 2.46065e-06
0.000134481 -0.000533684 -1.70647e-05
0.000158234 -1.63461e-05 7.21124e-05
7.58631e-06 -4.46738e-06 2.41656e-06
1.75436e-05 -1.32821e-05 5.27764e-06
-4.81674e-06 -4.9173e-06 1.85151e-06
5.95084e-06 -1.76674e-05 6.99618e-06
1.02464e-05 -6.25127e-06 2.13835e-06
-2.9199e-06 -6.72787e-06 3.60238e-06
1.16113e-05 -2.09157e-05 8.0211e-06
-3.5295e-06 -1.6703e-05 3.13939e-07
1.7404e-05 -1.49435e-05 5.77052e-06
-1.02852e-06 -1.24962e-06 5.06667e-07
0.000308678 -0.000237626 6.04881e-06
3.04804e-06 -2.23432e-06 9.56495e-07
0.000175943 -0.000432027 -3.61818e-05
1.68061e-05 -1.95256e-05 7.43272e-06
9.30754e-06 -1.16833e-05 4.51582e-06
0.000176177 -0.000180404 -0.000144687
1.5053e-06 -6.01259e-06 2.59793e-06
-0.000191963 -0.000208385 -0.000183425
-2.87946e-06 -6.21324e-06 2.41528e-06
5.43233e-06 -5.85104e-06 2.21859e-06
1.06603e-05 -3.91451e-06 1.95311e-06
-2.85603e-06 -2.03545e-05 8.13833e-06
-1.62259e-06 -2.55242e-06 1.00665e-06
-0.000353838 -0.000455003 -2.00496e-05
-2.28051e-06 -7.20463e-06 2.66007e-06
-3.90689e-06 -2.08081e-06 7.23592e-07
-4.11688e-06 -6.12087e-06 2.34433e-06
-0.000272743 -0.000251699 -1.76517e-05
1.95639e-05 -1.29371e-05 4.62072e-06
1.78278e-05 -1.66342e-05 6.15229e-06
-3.60558e-06 -6.32947e-06 2.45909e-06
3.21688e-06 -6.23098e-06 2.43491e-06
-1.20384e-07 -4.23675e-07 1.11748e-08
0.000137717 0.000206393 3.19314e-05
0.000135339 -8.74808e-05 -0.000147828
0.00026612 -0.000146701 -0.000214123
1.75865e-05 -1.28518e-05 4.77504e-06
5.92926e-06 -5.22005e-06 1.88673e-06
1.11421e-05 -3.88271e-06 8.01373e-07
9.98508e-07 -6.1923e-06 2.63617e-06
-9.43439e-05 -5.47554e-05 -4.89765e-05
3.5515e-05 0.000342139 4.39641e-05
-1.2856e-06 -3.15973e-07 -1.89309e-08
-1.44947e-06 -2.84057e-07 1.28327e-07
1.16141e-05 -1.2412e-05 5.04242e-06
9.48806e-07 -2.52319e-07 1.7794e-08