# vtk DataFile Version 4.2
vtk output
ASCII
DATASET UNSTRUCTURED_GRID

POINTS 343 double
0.00131281 0.0042018 -6.98732e-06
0.00253836 0.00499553 0.00216211
0 0.00419538 0.00112517
0.00225503 0.00196568 0.00193045
0.0060294 0.00242813 0.00500375
0.0060342 0.00385401 0.00636892
0.00890007 0.00480362 0.00496004
0.00727059 0.00487712 0.00365867
0.0079729 0.0033138 0.00687834
0.00582815 0.00501699 0.00497187
0.00486742 0.00113415 0.00997642
0.00615377 0.00210075 0.00787545
0.00487808 7.27479e-06 0.00829374
0.00234815 0.0020143 0.00802113
0.00499392 0.00255207 0.00997611
0.00812391 0.00647607 0.00691042
0.0074926 0.00621061 0.00514869
0.00263925 0.00219762 0.00513255
0 0.00143586 0.00417514
0.0018631 0.00347593 0.00402711
0.00798155 0.00321865 0.00312622
0.00903398 0.00223664 0.00502491
0 0.00270918 0.00154168
0.00485531 0.00144468 -2.2811e-05
0.00584485 0.00220755 0.00217173
0.00462968 0.00354663 0.00158138
0.00156985 7.25989e-06 0.00405191
0.00487828 7.13004e-06 0.00166611
0.00307349 0.00696711 -1.56373e-05
0.00226754 0.00806454 0.00193308
0.00477996 0.00627051 0.00162246
0.00934954 0.0080163 0.00795664
0.0092933 0.00484409 0.00798189
0.0097978 0.00610935 0.00590582
0.0116963 0.00885631 0.00414304
0.00885734 0.00766541 0.00492442
0.0100252 0.0100087 0.00412302
0.00933244 0.00800098 0.00197585
0.00412545 0.00305498 0.00693894
0.00517483 0.00368389 0.00829982
0.00453791 0.00161736 0.00594662
0.00584666 0.0076926 0.0076492
0.00232453 0.0080197 0.00797724
0.00330638 0.0100126 0.00710983
0.00457821 0.00841979 0.00593478
0 0.00695361 0.00262895
0.00192465 0.00624913 0.00407774
0 0.0040177 0.00850214
0.00270359 0.00499944 0.0076474
0.00167309 0.00418305 0.00999099
0.0083757 0.00714708 0.00996116
0.00714093 0.00599816 0.00838508
0.00239869 0.00795395 0.00472915
0.0035559 0.00696044 0.00644929
0.00185414 0.00608796 0.00591618
0.0116633 0.0058136 0.00826608
0 0.00718191 0.00711644
0.00185388 0.00578316 -9.84616e-06
0 0.00577432 0.00158701
0.011677 0.00718808 0.00706543
0.0033432 0.00336487 0.00998367
0.0116329 0.00143105 0.00412641
0.00937943 0.00196574 0.00193947
0.00979356 0.00352843 0.00395659
0.00434559 0.00166436 0.00410702
0.00176527 0.010009 0.00580545
0.00327231 8.44775e-06 0.00711116
0.00712578 0.00419739 0.00834367
0.011683 0.00727987 0.00414557
0.00994186 -2.78293e-06 0.00412562
0.00390599 0.0028869 -1.9103e-05
0.00314571 0.00155194 0.00998445
0.00328538 7.87451e-06 0.00281575
0.00559913 0.00521812 0.00752775
0.00368813 0.00316353 0.00314886
0 0.00849157 0.00581511
0.00567949 0.00369222 0.00375933
0.00179726 0.00271824 -9.61901e-06
0.0067722 0.00834163 0.00996769
0.00699554 0.0100146 0.0084732
0.00492505 0.0100144 0.00829373
0.00469118 0.00851803 0.00997668
0.0116903 0.00849792 0.00576416
0.00367931 0.00685161 0.00313238
0 0.00748929 0.00137438
0.00160713 0.00749777 -8.69706e-06
0 0.00287343 0.00335182
0 0.00580816 0.00831736
0 0.00429792 0.00253898
0.00296361 0.00431042 -1.49796e-05
0.00167403 0.00582789 0.00999102
0.0060446 0.00649396 0.00637125
0.00420654 0.00652968 0.00821328
0.00807759 0.00263656 0.00996284
0.00932314 0.001963 0.00799334
0.00809283 1.76543e-06 0.00304674
0.00699946 0.00167313 0.00358124
0.0116467 0.00287264 0.00330342
0 0.00140616 0.00256446
0.00744843 0.00824418 0.00638575
0.00676664 0.00144236 -2.96389e-05
0.00703353 0.00356488 0.00157212
0.00369241 0.0100129 0.00580626
0.0100158 0.0100089 0.0057881
0.00298365 0.00141518 -1.47696e-05
0.00693845 4.29818e-06 0.00146468
0.0073455 0.0083039 0.00358321
0.00993282 -2.45516e-06 0.0057899
0.00721101 0.00168174 0.00633157
0.0016363 0.00257268 0.0099913
0.00832141 0.00719668 -3.65704e-05
0.00604236 0.00770699 0.00214074
0.00694136 0.0061113 0.00157066
0 0.00686719 0.00578184
0.0116355 0.00140078 0.00251666
0.00206968 0.00362056 0.00639705
0.0116962 0.00849257 0.0025743
0.00981984 0.00620026 0.00408965
0.00700635 0.0100134 0.00146178
0.00808495 2.14277e-06 0.00688917
0.0116301 0.001431 0.0057699
0.00977741 0.00358064 0.00601768
0.00175198 7.77663e-06 0.00580602
0 0.0013659 0.00748679
0.0015904 6.9964e-06 0.00752033
0.0116766 0.0068731 0.00573125
0.00680884 0.00850698 -3.09788e-05
0 0.0075208 0.00859127
0.00159415 0.00749464 0.0099914
0.00494814 0.00822183 0.00360363
0.0100513 0.0100086 0.00746673
0.0116886 0.00863689 0.00747484
0.00670181 0.00159553 0.00996843
0.00844818 0.0042006 0.00996125
0 0.0057735 0.00666667
0.00160212 0.010008 0.00752025
0 0.00863025 0.00752641
0.00997582 -3.86561e-06 0.00246604
0.0116831 0.006959 0.00257969
0.00987982 0.00635268 0.00212033
0.00991883 0.00583459 0.00995505
0.00869545 0.00137805 0.00995993
0.00996811 -3.18016e-06 0.00746701
0.0116265 0.00136123 0.00743601
0 0.00143551 0.00581971
0.00692886 4.89274e-06 0.00847294
0.00488702 6.75158e-06 0.00337683
0.00925386 0.00471783 0.00199445
0.0116604 0.00430012 0.00249031
0.00494835 0.0100139 0.00664143
0.00332005 0.0100128 0.00281472
0.00152569 6.8794e-06 0.00241045
0 0.00727418 0.00419576
0.0116656 0.00577878 0.00661576
0.00816751 0.010012 0.00304425
0.00876999 0.00865016 0.00995975
0 0.00574334 0.00336387
0 0.0043297 0.00416652
0.00800616 0.00579995 0.00996317
0.0116417 0.00302247 0.00686451
0.0048982 6.92444e-06 0.00664257
0.00289946 0.0100111 0.00859648
0.0087078 0.0013684 -3.64545e-05
0.00673404 0.00668416 0.00996815
0.0116774 0.00752731 0.00853958
0.0100485 0.00756496 0.00995444
0.00805404 0.00303123 -3.44116e-05
0.0039296 0.00575977 -1.9085e-05
0.00881103 0.00864291 -3.85407e-05
0.00880478 0.0100103 0.00134842
0.00675966 0.00688434 -3.05678e-05
0.00814554 0.0063864 0.00299681
0.00872663 -9.67483e-07 0.00135151
0.00336005 0.00501348 0.00998341
0.00504552 0.00585137 0.00997564
0.00503831 0.00418344 0.00997596
0.0087924 0.0100112 0.00857566
0.0028703 7.57376e-06 0.00859695
0.0116711 0.00574795 0.00331455
0 0.00302218 0.00691532
0.0116474 0.00402044 0.00845099
0.00991336 0.00402383 -4.11827e-05
0.0116487 0.00270739 0.00149385
0 0.00244495 0.00857025
0.00285588 0.00858145 0.00998529
0.00871515 -2.25778e-07 0.00857514
0.00986669 0.00262858 0.00995508
0.0103044 0.00420094 0.00995341
0.0066376 0.0100141 0.00580085
0.00606007 0.00760084 0.00500277
0.00660778 0.0100139 0.00418332
0.00815925 0.0100126 0.0068879
0.00352508 0.00693091 0.00998231
0.0048608 0.00434604 -2.2441e-05
0.00328807 7.55892e-06 0.00438834
0.0036552 8.05174e-06 0.00580742
0.0116621 0.0041968 0.00107718
0.00425686 0.00835219 0.00156775
0.0116577 0.00433236 0.00411724
0.00778514 0.00578869 -3.39279e-05
0.0100597 0.0100081 0.00246288
0 0.00848692 0.00262374
0.0015815 0.0100079 0.00405122
0 0.00885053 0.00419359
0.00491198 0.00886484 -2.33467e-05
0.0049279 0.0100134 0.00166387
0.00583042 0.00480897 0.00235169
0.0084206 0.00453317 -3.60443e-05
0.00654503 4.71905e-06 0.00418559
0.00657484 4.89817e-06 0.00580225
0.00153711 0.0100077 0.0024096
0.0099797 0.00244727 -4.09956e-05
0.011654 0.00452523 0.0071686
0.00833053 0.010012 0.00496145
0.00667809 0.00337803 0.00996873
0.00285255 7.63768e-06 0.00134263
0.0116337 0.00244339 0.00851932
0.00279419 0.00480384 0.00498558
0.0068024 0.00434469 -2.97271e-05
0.00971276 0.00581816 -4.10241e-05
0.00641243 0.0100146 0.0071894
0.0116547 0.00433311 0.00578318
0.00632953 0.0100139 0.00274518
0.00825493 1.80519e-06 0.00496362
0.00332176 0.0100128 0.00438694
0 0.00452174 0.00721958
0.00527548 0.00723755 0.0099744
0.00635094 5.61572e-06 0.0071897
0.0042036 0.00509034 0.00357549
0.00497951 0.0100139 0.00498299
0.00492791 6.70268e-06 0.00498467
0.00428115 0.00523373 0.00615299
0 0.005744 0.00499998
0 0.00433013 0.00583333
0.00583969 0.00576246 -2.63059e-05
0.00582077 0.00635738 0.00352601
0.00626783 5.08586e-06 0.00274795
0.0116682 0.00574916 0.00494991
0.00430907 0.00642488 0.00482202
0.00668955 0.00501764 0.00996869
0.0116747 0.00577858 0.00153845
0 0.00666667 0
0.010047 0.00753118 -4.28273e-05
0.00386965 5.04417e-06 -1.6383e-05
0 0.01 0.00666667
0.00584837 0.0100134 0.00997274
0 0.00288419 0.00499914
0.0116901 0.00749486 0.00132563
0.0116855 0.00667161 -4.83331e-05
0 0.005 0.01
0.00582148 0.00289686 -2.62868e-05
0 0.005 0
0.0116213 -9.60136e-06 0.00328556
0.0117016 0.010004 0.00661487
0.00490727 0.00729118 -2.31e-05
0.0116436 0.00288398 0.00494972
0.00580508 3.4139e-06 -2.40371e-05
0 0 0.00666667
0.00442452 0.00363269 0.00520418
0.00579348 4.83545e-06 0.00997138
0.0116155 -9.00114e-06 0.00661624
0 0 0.005
0.0102857 0.0100072 0.00117569
0.0117014 0.00878483 0.00117092
0.0116183 -9.12529e-06 0.00495095
0.0116712 0.00500254 -4.76641e-05
0.0014208 0.00122617 -7.61257e-06
0 0.00122008 0.00122008
0 0.00333333 0.01
0 0.00666667 0.01
0.010278 0.00878869 -4.40993e-05
0.0117078 0.0100035 0.00328274
0.00493824 0.0100136 0.00337475
0.0116674 0.00667293 0.00994885
0 0.00333333 0
0 0.00122008 0.00877992
0.00141649 5.56788e-06 0.00877194
0.00141871 0.00122662 0.0099926
0.0102718 0.0100078 0.00873398
0.00142509 0.00878667 0.00999227
0 0.00877992 0.00877992
0.0116878 0.00878613 0.00872836
0.00781503 0.0100118 -3.57523e-05
0.0116362 0.00121342 0.0011731
0.00142724 0.0100067 0.00877275
0.0102601 0.00878951 0.00995393
0.011653 0.00500416 0.00994882
0 0 0.00333333
0.00774218 3.52572e-07 -3.11478e-05
0.0102012 -5.45779e-06 0.00117923
0.00140799 5.66673e-06 0.00120538
0 0.00877992 0.00122008
0.00142781 0.008787 -7.61218e-06
0.00141898 0.0100068 0.0012037
0.0116227 0.00121463 0.00872849
0.0101964 0.00121884 0.00995346
0.00772783 1.90373e-06 0.00996271
0.0102138 0.00121754 -4.13194e-05
0.0101882 -4.38938e-06 0.0087331
0.0116571 0.00333265 -4.71605e-05
0.00389924 0.0100113 0.00998177
0.00288258 0.0100115 0.00134139
0.00779907 0.0100122 0.00996481
0.0116387 0.00333465 0.00994879
0 0.01 0.005
0.00307217 0.0084996 -1.55426e-05
0.0117046 0.0100036 0.00494895
0 0.01 0.00333333
0 0.00166667 0
0.0116245 -1.02795e-05 0.00162011
0 0.00166667 0.01
0 0.00833333 0
0.0116999 0.00833824 -4.90195e-05
0.0116128 -9.28863e-06 0.00828163
0.0117109 0.010003 0.00161704
0.0116987 0.0100039 0.0082818
0.0019504 0.0100074 0.00999025
0 0.01 0.00833333
0.00976565 0.010008 -4.27146e-05
0.00968297 -5.21549e-06 -3.83587e-05
0.00966625 -3.83299e-06 0.00995483
0.00974766 0.0100082 0.00995653
0 0 0.00833333
0.0116818 0.0083396 0.00994867
0.00193494 5.0603e-06 -9.07927e-06
0 0 0.00166667
0.00390979 0.0100126 -1.95596e-05
0.0116244 0.00166205 0.00994842
0.0116424 0.00166071 -4.6571e-05
0.00193226 5.93895e-06 0.00999022
0.00195408 0.0100085 -1.03215e-05
0 0.01 0.00166667
0.0116958 0.0100036 0.00994904
0 0 0.01
0.011714 0.0100029 -4.98228e-05
0.0116098 -9.51247e-06 0.00994744
0 0.01 0.01
0.0116275 -1.1108e-05 -4.54988e-05
0 0.01 0
0 0 0
0.00586278 0.010013 -2.79199e-05
0.00386142 6.90018e-06 0.00998025
0 0.00833333 0.01

CELLS 343 686
1 0
1 1
1 2
1 3
1 4
1 5
1 6
1 7
1 8
1 9
1 10
1 11
1 12
1 13
1 14
1 15
1 16
1 17
1 18
1 19
1 20
1 21
1 22
1 23
1 24
1 25
1 26
1 27
1 28
1 29
1 30
1 31
1 32
1 33
1 34
1 35
1 36
1 37
1 38
1 39
1 40
1 41
1 42
1 43
1 44
1 45
1 46
1 47
1 48
1 49
1 50
1 51
1 52
1 53
1 54
1 55
1 56
1 57
1 58
1 59
1 60
1 61
1 62
1 63
1 64
1 65
1 66
1 67
1 68
1 69
1 70
1 71
1 72
1 73
1 74
1 75
1 76
1 77
1 78
1 79
1 80
1 81
1 82
1 83
1 84
1 85
1 86
1 87
1 88
1 89
1 90
1 91
1 92
1 93
1 94
1 95
1 96
1 97
1 98
1 99
1 100
1 101
1 102
1 103
1 104
1 105
1 106
1 107
1 108
1 109
1 110
1 111
1 112
1 113
1 114
1 115
1 116
1 117
1 118
1 119
1 120
1 121
1 122
1 123
1 124
1 125
1 126
1 127
1 128
1 129
1 130
1 131
1 132
1 133
1 134
1 135
1 136
1 137
1 138
1 139
1 140
1 141
1 142
1 143
1 144
1 145
1 146
1 147
1 148
1 149
1 150
1 151
1 152
1 153
1 154
1 155
1 156
1 157
1 158
1 159
1 160
1 161
1 162
1 163
1 164
1 165
1 166
1 167
1 168
1 169
1 170
1 171
1 172
1 173
1 174
1 175
1 176
1 177
1 178
1 179
1 180
1 181
1 182
1 183
1 184
1 185
1 186
1 187
1 188
1 189
1 190
1 191
1 192
1 193
1 194
1 195
1 196
1 197
1 198
1 199
1 200
1 201
1 202
1 203
1 204
1 205
1 206
1 207
1 208
1 209
1 210
1 211
1 212
1 213
1 214
1 215
1 216
1 217
1 218
1 219
1 220
1 221
1 222
1 223
1 224
1 225
1 226
1 227
1 228
1 229
1 230
1 231
1 232
1 233
1 234
1 235
1 236
1 237
1 238
1 239
1 240
1 241
1 242
1 243
1 244
1 245
1 246
1 247
1 248
1 249
1 250
1 251
1 252
1 253
1 254
1 255
1 256
1 257
1 258
1 259
1 260
1 261
1 262
1 263
1 264
1 265
1 266
1 267
1 268
1 269
1 270
1 271
1 272
1 273
1 274
1 275
1 276
1 277
1 278
1 279
1 280
1 281
1 282
1 283
1 284
1 285
1 286
1 287
1 288
1 289
1 290
1 291
1 292
1 293
1 294
1 295
1 296
1 297
1 298
1 299
1 300
1 301
1 302
1 303
1 304
1 305
1 306
1 307
1 308
1 309
1 310
1 311
1 312
1 313
1 314
1 315
1 316
1 317
1 318
1 319
1 320
1 321
1 322
1 323
1 324
1 325
1 326
1 327
1 328
1 329
1 330
1 331
1 332
1 333
1 334
1 335
1 336
1 337
1 338
1 339
1 340
1 341
1 342

CELL_TYPES 343
1
1
1
1
1
1
1
1
1
1
1
1
1
1
1
1
1
1
1
1
1
1
1
1
1
1
1
1
1
1
1
1
1
1
1
1
1
1
1
1
1
1
1
1
1
1
1
1
1
1
1
1
1
1
1
1
1
1
1
1
1
1
1
1
1
1
1
1
1
1
1
1
1
1
1
1
1
1
1
1
1
1
1
1
1
1
1
1
1
1
1
1
1
1
1
1
1
1
1
1
1
1
1
1
1
1
1
1
1
1
1
1
1
1
1
1
1
1
1
1
1
1
1
1
1
1
1
1
1
1
1
1
1
1
1
1
1
1
1
1
1
1
1
1
1
1
1
1
1
1
1
1
1
1
1
1
1
1
1
1
1
1
1
1
1
1
1
1
1
1
1
1
1
1
1
1
1
1
1
1
1
1
1
1
1
1
1
1
1
1
1
1
1
1
1
1
1
1
1
1
1
1
1
1
1
1
1
1
1
1
1
1
1
1
1
1
1
1
1
1
1
1
1
1
1
1
1
1
1
1
1
1
1
1
1
1
1
1
1
1
1
1
1
1
1
1
1
1
1
1
1
1
1
1
1
1
1
1
1
1
1
1
1
1
1
1
1
1
1
1
1
1
1
1
1
1
1
1
1
1
1
1
1
1
1
1
1
1
1
1
1
1
1
1
1
1
1
1
1
1
1
1
1
1
1
1
1
1
1
1
1
1
1
1
1
1
1
1
1
1
1
1
1
1
1
1
1
1
1
1
1
1
1
1
1
1
1
1
1
1
1
1
1

POINT_DATA 343
FIELD FieldData 8

NodeID_(#) 1 343 int
0
1
2
3
4
5
6
7
8
9
10
11
12
13
14
15
16
17
18
19
20
21
22
23
24
25
26
27
28
29
30
31
32
33
34
35
36
37
38
39
40
41
42
43
44
45
46
47
48
49
50
51
52
53
54
55
56
57
58
59
60
61
62
63
64
65
66
67
68
69
70
71
72
73
74
75
76
77
78
79
80
81
82
83
84
85
86
87
88
89
90
91
92
93
94
95
96
97
98
99
100
101
102
103
104
105
106
107
108
109
110
111
112
113
114
115
116
117
118
119
120
121
122
123
124
125
126
127
128
129
130
131
132
133
134
135
136
137
138
139
140
141
142
143
144
145
146
147
148
149
150
151
152
153
154
155
156
157
158
159
160
161
162
163
164
165
166
167
168
169
170
171
172
173
174
175
176
177
178
179
180
181
182
183
184
185
186
187
188
189
190
191
192
193
194
195
196
197
198
199
200
201
202
203
204
205
206
207
208
209
210
211
212
213
214
215
216
217
218
219
220
221
222
223
224
225
226
227
228
229
230
231
232
233
234
235
236
237
238
239
240
241
242
243
244
245
246
247
248
249
250
251
252
253
254
255
256
257
258
259
260
261
262
263
264
265
266
267
268
269
270
271
272
273
274
275
276
277
278
279
280
281
282
283
284
285
286
287
288
289
290
291
292
293
294
295
296
297
298
299
300
301
302
303
304
305
306
307
308
309
310
311
312
313
314
315
316
317
318
319
320
321
322
323
324
325
326
327
328
329
330
331
332
333
334
335
336
337
338
339
340
341
342

Component_(#) 1 343 int
0
0
0
0
0
0
0
0
0
0
0
0
0
0
0
0
0
0
0
0
0
0
0
0
0
0
0
0
0
0
0
0
0
0
0
0
0
0
0
0
0
0
0
0
0
0
0
0
0
0
0
0
0
0
0
0
0
0
0
0
0
0
0
0
0
0
0
0
0
0
0
0
0
0
0
0
0
0
0
0
0
0
0
0
0
0
0
0
0
0
0
0
0
0
0
0
0
0
0
0
0
0
0
0
0
0
0
0
0
0
0
0
0
0
0
0
0
0
0
0
0
0
0
0
0
0
0
0
0
0
0
0
0
0
0
0
0
0
0
0
0
0
0
0
0
0
0
0
0
0
0
0
0
0
0
0
0
0
0
0
0
0
0
0
0
0
0
0
0
0
0
0
0
0
0
0
0
0
0
0
0
0
0
0
0
0
0
0
0
0
0
0
0
0
0
0
0
0
0
0
0
0
0
0
0
0
0
0
0
0
0
0
0
0
0
0
0
0
0
0
0
0
0
0
0
0
0
0
0
0
0
0
0
0
0
0
0
0
0
0
0
0
0
0
0
0
0
0
0
0
0
0
0
0
0
0
0
0
0
0
0
0
0
0
0
0
0
0
0
0
0
0
0
0
0
0
0
0
0
0
0
0
0
0
0
0
0
0
0
0
0
0
0
0
0
0
0
0
0
0
0
0
0
0
0
0
0
0
0
0
0
0
0
0
0
0
0
0
0
0
0
0
0
0
0
0
0
0
0
0
0
0
0
0
0
0
0
0
0
0
0
0
0

NodalMass_(kg) 1 343 double
3.15563e-06
1.41304e-05
2.20912e-06
1.71484e-05
8.42e-06
9.09306e-06
9.93033e-06
7.52198e-06
6.81096e-06
5.58223e-06
3.10888e-06
1.07575e-05
4.87011e-06
1.64955e-05
3.0246e-06
8.05984e-06
6.703e-06
1.0877e-05
4.18978e-06
8.16106e-06
6.14143e-06
1.17902e-05
2.23114e-06
4.25176e-06
1.09915e-05
7.41467e-06
4.21871e-06
3.92484e-06
3.08766e-06
1.31268e-05
7.72627e-06
1.65404e-05
1.19037e-05
7.29666e-06
3.81683e-06
1.11001e-05
3.81317e-06
1.39137e-05
6.37414e-06
8.00975e-06
7.6712e-06
1.18847e-05
1.6399e-05
2.78633e-06
8.93599e-06
2.58087e-06
7.57362e-06
4.23241e-06
1.31286e-05
3.80168e-06
2.7746e-06
7.16776e-06
1.21307e-05
5.11765e-06
8.19728e-06
4.58094e-06
2.79503e-06
3.26126e-06
4.12443e-06
2.11915e-06
3.35177e-06
3.61669e-06
1.56838e-05
7.33679e-06
8.24695e-06
5.00369e-06
2.82625e-06
7.20276e-06
3.26815e-06
4.18751e-06
2.02785e-06
2.42152e-06
3.11835e-06
5.97459e-06
5.87101e-06
4.09374e-06
5.45463e-06
2.28825e-06
4.49759e-06
4.38192e-06
4.50892e-06
4.39234e-06
4.27273e-06
5.32031e-06
1.53201e-06
2.38869e-06
2.02885e-06
4.38798e-06
3.17972e-06
3.14298e-06
4.61567e-06
5.87645e-06
8.18088e-06
2.48341e-06
1.53815e-05
3.49683e-06
7.35227e-06
2.01314e-06
2.0408e-06
7.98183e-06
4.41293e-06
7.1389e-06
1.20123e-06
5.03343e-06
1.61257e-06
4.12601e-06
8.73748e-06
4.37849e-06
7.97173e-06
2.13557e-06
3.38137e-06
9.48623e-06
7.40262e-06
1.80226e-06
2.10222e-06
7.98889e-06
1.87983e-06
7.44814e-06
4.19782e-06
2.37156e-06
4.31705e-06
6.06441e-06
4.30905e-06
2.16843e-06
1.8986e-06
1.81294e-06
3.89762e-06
2.44299e-06
1.65628e-06
8.01374e-06
1.64513e-06
2.3931e-06
3.01363e-06
2.99431e-06
1.36541e-06
1.87293e-06
2.09622e-06
1.94762e-06
1.87618e-06
6.37913e-06
4.58628e-06
2.02767e-06
1.61999e-06
2.41284e-06
3.8865e-06
4.44973e-06
2.29839e-06
1.17349e-05
3.11811e-06
1.354e-06
3.45063e-06
1.81846e-06
2.9382e-06
1.37381e-06
2.41464e-06
2.10451e-06
2.63927e-06
2.14166e-06
1.7943e-06
3.19976e-06
1.36989e-06
2.43489e-06
2.08158e-06
1.3601e-06
2.17203e-06
1.89924e-06
3.16996e-06
2.6119e-06
2.37677e-06
1.60225e-06
1.90684e-06
5.49206e-06
1.87878e-06
3.14313e-06
2.97301e-06
1.18454e-06
1.89263e-06
2.04166e-06
2.73572e-06
2.42405e-06
3.23083e-06
3.19752e-06
3.2142e-06
1.94492e-06
1.61196e-06
1.86876e-06
3.22435e-06
2.1114e-06
2.96917e-06
6.15288e-06
2.3097e-06
2.39729e-06
2.38029e-06
2.64508e-06
1.66557e-06
1.82377e-06
2.06583e-06
5.73271e-06
2.08467e-06
2.18324e-06
2.43522e-06
3.1188e-06
3.17316e-06
2.05447e-06
1.9592e-06
3.05718e-06
6.44327e-06
2.08796e-06
2.72615e-06
2.15709e-06
1.86812e-06
2.0028e-06
2.10999e-06
2.88994e-06
2.3222e-06
2.3979e-06
1.97629e-06
6.4127e-06
2.16225e-06
3.29198e-06
2.10223e-06
2.66566e-06
1.94415e-06
2.91865e-06
2.58116e-06
2.11703e-06
2.09534e-06
1.91719e-06
7.06046e-06
2.25203e-06
2.06378e-06
6.28159e-06
2.12147e-06
2.90924e-06
2.12921e-06
6.4487e-06
1.41701e-06
2.0682e-06
6.58062e-06
2.52584e-06
2.39732e-06
7.42191e-07
2.22368e-06
7.06751e-07
7.00657e-07
8.93749e-07
2.53536e-06
2.26535e-06
1.33607e-06
7.84725e-07
2.32303e-06
6.06694e-07
6.68276e-07
6.84307e-07
2.51242e-06
2.31629e-06
7.8367e-07
6.80839e-07
6.22692e-06
6.7471e-07
6.65305e-07
7.01158e-07
1.8232e-06
1.90695e-06
6.86722e-07
7.04792e-07
1.86445e-06
2.28572e-06
6.8045e-07
7.16005e-07
1.82373e-06
6.01079e-07
2.02791e-06
7.4579e-07
5.74423e-07
1.80052e-06
1.454e-06
2.2702e-06
1.80636e-06
2.15356e-06
1.79089e-06
1.79456e-06
6.8231e-07
2.24737e-06
1.45239e-06
1.79556e-06
6.97875e-07
6.24265e-07
6.62717e-07
1.44627e-06
1.40138e-06
2.15258e-06
1.82851e-06
1.3994e-06
1.43932e-06
2.19226e-06
6.97732e-07
1.77726e-06
1.79162e-06
6.54258e-07
7.3397e-07
2.34895e-06
7.10392e-07
6.56982e-07
6.26314e-07
2.18926e-06
6.12493e-07
6.03901e-07
5.92831e-07
5.12031e-07
5.11667e-07
4.9467e-07
4.97016e-07
4.96269e-07
5.33079e-07
4.94191e-07
4.97855e-07
4.86862e-07
4.90626e-07
4.94649e-07
4.94954e-07
4.91922e-07
4.89615e-07
4.96354e-07
4.95189e-07
4.82188e-07
1.10854e-06
5.3299e-07
5.44763e-07
5.36655e-07
5.15417e-07
5.01772e-07
5.53774e-07
5.53774e-07
5.53774e-07
5.53774e-07
5.53774e-07
5.53774e-07
5.50785e-07
5.50785e-07
7.45291e-07
7.11668e-07
4.9897e-07

NodalForce_(N) 3 343 double
6.59117e-06 1.5778e-06 -7.72557e-07
6.54663e-05 1.17366e-05 -8.22803e-06
0.00129122 0.000877056 0.000469313
7.66033e-05 1.20463e-05 -1.68528e-05
0.000106493 1.13864e-05 -2.33258e-05
0.000111531 5.22896e-06 -1.64916e-05
0.000138331 2.76861e-05 -3.76601e-05
8.6819e-05 1.73253e-05 -2.41831e-05
0.000105645 1.065e-05 -1.93021e-05
5.94421e-05 5.2345e-06 -9.8638e-06
3.74155e-05 4.90139e-07 -4.90876e-06
0.000150198 7.99037e-06 -2.25849e-05
5.93651e-05 3.63299e-06 -9.64693e-06
8.9815e-05 -3.59554e-06 -1.28358e-05
3.49925e-05 -1.10022e-06 -4.02167e-06
0.000102792 9.63537e-06 -1.19902e-05
7.6874e-05 1.13473e-05 -1.38987e-05
6.26356e-05 1.72534e-06 -1.17419e-05
-0.0019989 0.00146923 -0.000732258
3.12651e-05 2.08877e-06 -4.10187e-06
8.13081e-05 2.03482e-05 -3.0619e-05
0.000196125 3.9987e-05 -5.93181e-05
-0.00123136 -0.00303061 -0.00151744
3.26519e-05 1.42161e-05 -1.81137e-05
0.000118989 2.99725e-05 -4.70028e-05
5.67082e-05 1.4269e-05 -2.00773e-05
1.59202e-05 1.30753e-06 -3.59813e-06
4.03967e-05 1.12389e-05 -1.74625e-05
1.29422e-05 5.09294e-06 -2.14436e-06
5.0089e-05 8.47442e-06 5.09932e-07
5.36689e-05 1.49168e-05 -1.19956e-05
0.000208126 2.69531e-05 -1.28369e-05
0.000191015 2.02626e-05 -2.83301e-05
9.83183e-05 2.30429e-05 -2.38902e-05
3.46035e-05 2.72816e-05 -1.2712e-05
0.000118251 3.58023e-05 -2.36623e-05
2.89006e-05 2.39409e-05 -4.73811e-06
0.000115282 8.48785e-05 -4.19832e-05
5.7474e-05 2.66104e-07 -8.46006e-06
8.90534e-05 -2.31136e-06 -9.86139e-06
8.09714e-05 5.48863e-06 -1.46987e-05
0.000117246 -1.24529e-06 -1.10671e-06
8.12178e-05 -7.11902e-06 2.50755e-06
1.57025e-05 1.92263e-07 2.13605e-06
6.74871e-05 3.67605e-06 2.17721e-06
0.0013447 0.0016163 -0.000584889
2.81147e-05 1.92459e-06 -9.84816e-07
-0.000844372 0.00194616 -0.000217568
7.52181e-05 -3.60163e-06 -5.33872e-06
1.44546e-05 -1.33399e-06 -9.34409e-07
3.69466e-05 4.07785e-08 -1.07142e-06
9.09764e-05 6.35364e-07 -6.61457e-06
5.61754e-05 5.60483e-07 2.3852e-06
3.56581e-05 -1.90118e-06 -9.68636e-07
3.13031e-05 -2.62744e-07 -1.64957e-06
7.1588e-05 1.69093e-05 -1.48475e-05
0.00138636 0.000874389 0.000996311
9.48917e-06 3.07875e-06 -1.05032e-06
-0.000422027 0.000242317 -0.000722591
2.80095e-05 9.44252e-06 -6.74337e-06
2.53336e-05 -2.27113e-06 -2.32958e-06
6.39221e-05 2.34938e-05 -2.99275e-05
0.000232382 8.65131e-05 -0.000124977
0.000109528 3.09055e-05 -4.26049e-05
8.06293e-05 9.57574e-06 -1.90839e-05
1.74144e-05 6.6372e-07 2.00842e-06
2.35078e-05 1.27128e-06 -4.28942e-06
0.000102214 1.63774e-06 -1.21056e-05
3.62142e-05 2.16476e-05 -1.49815e-05
7.92875e-05 2.13813e-05 -3.23897e-05
1.08059e-05 4.37475e-06 -5.38168e-06
1.9088e-05 -7.47839e-07 -2.09337e-06
2.47694e-05 4.31761e-06 -6.764e-06
6.62542e-05 -1.11908e-06 -5.59656e-06
4.30321e-05 5.2271e-06 -8.81708e-06
0.00229995 0.0012792 0.000356758
5.8229e-05 7.97923e-06 -1.42667e-05
6.09624e-06 1.63429e-06 -1.24523e-06
4.85325e-05 -3.24163e-06 2.59507e-06
4.10239e-05 2.77399e-06 4.83048e-06
3.60206e-05 -2.04698e-07 4.16028e-06
3.65031e-05 -3.89245e-06 3.07954e-06
4.59004e-05 2.38174e-05 -1.28449e-05
3.39361e-05 4.40049e-06 -1.55526e-06
-9.06144e-05 -0.00160377 0.000762196
6.4061e-06 1.39573e-06 -3.65259e-07
2.15449e-05 -0.00118438 0.00103438
-0.00244576 -0.000484734 0.00015482
-0.000587415 0.00091093 -0.000110749
1.23031e-05 5.15347e-06 -4.24338e-06
1.63538e-05 -2.39365e-06 -5.01014e-07
6.15846e-05 2.28019e-06 -5.00514e-06
6.86126e-05 -6.54373e-06 -8.85367e-07
4.30488e-05 1.74265e-06 -5.84388e-06
0.000293139 3.68188e-05 -5.55077e-05
5.62756e-05 1.52347e-05 -2.43905e-05
0.000100849 2.06268e-05 -3.42877e-05
3.1068e-05 1.29963e-05 -1.64534e-05
0.000201382 0.000670125 0.000298102
8.32428e-05 1.12369e-05 -3.27735e-06
4.70204e-05 2.20544e-05 -2.89445e-05
7.77422e-05 2.53559e-05 -3.49769e-05
6.94464e-06 8.23598e-07 9.28927e-07
4.51439e-05 2.47213e-05 -3.75838e-06
6.9577e-06 2.88578e-06 -3.22103e-06
5.53351e-05 1.82134e-05 -2.92256e-05
7.33516e-05 2.79893e-05 -1.09317e-05
8.81554e-05 1.87474e-05 -2.65892e-05
0.000123886 1.41312e-05 -2.46586e-05
8.49144e-06 -6.38889e-07 -6.01363e-07
2.48759e-05 2.14905e-05 -1.24717e-05
6.87388e-05 2.78082e-05 -1.26597e-05
6.44619e-05 2.54795e-05 -2.32835e-05
-0.00176985 -0.000498647 -0.00163402
3.44466e-05 1.57475e-05 -2.0375e-05
3.59176e-05 -7.27132e-08 -4.37077e-06
1.55393e-05 1.57159e-05 -7.88777e-06
9.05025e-05 3.16353e-05 -3.03242e-05
2.08518e-05 2.23551e-05 -1.46315e-06
4.3633e-05 6.44871e-06 -9.3235e-06
8.17282e-05 2.43348e-05 -2.88487e-05
9.93144e-05 1.92025e-05 -2.63726e-05
1.74715e-05 9.36954e-07 -3.02658e-06
0.000408332 0.000325931 0.000443935
6.85451e-06 3.11782e-07 -1.01483e-06
2.30549e-05 9.68078e-06 -7.54358e-06
2.21093e-05 2.14188e-05 -7.14826e-06
-0.000451557 -0.000959895 -0.000910721
5.37945e-06 -6.98793e-07 -1.06992e-07
5.63847e-05 1.28957e-05 -6.40075e-07
1.67165e-05 6.1593e-06 8.03971e-08
2.80698e-05 1.02915e-05 -4.6801e-06
4.80572e-05 1.66365e-06 -6.38509e-06
4.94274e-05 1.14454e-06 -5.56975e-06
0.00151175 -0.00151196 -0.000171833
6.6728e-06 1.27399e-07 4.19832e-07
-0.000514873 0.000649441 -0.000162521
3.44222e-05 1.2256e-05 -1.81848e-05
1.92213e-05 1.44635e-05 -1.01975e-05
6.69078e-05 3.79703e-05 -3.02617e-05
7.4572e-05 5.38856e-06 -7.51952e-06
3.90883e-05 3.54552e-06 -6.00493e-06
3.4344e-05 6.27879e-06 -7.91622e-06
4.85723e-05 1.19974e-05 -1.36117e-05
-0.00178243 0.000643284 0.000210883
7.53418e-05 6.61575e-06 -1.28325e-05
2.64143e-05 4.86885e-06 -8.42082e-06
0.00014072 5.97352e-05 -6.68166e-05
4.10689e-05 2.12739e-05 -2.41103e-05
9.88356e-06 1.08021e-06 1.36256e-06
1.35724e-05 4.83913e-06 2.54646e-06
6.61903e-06 5.96739e-07 -1.22579e-06
-0.00137379 -0.00129343 -0.000177634
2.0116e-05 6.2271e-06 -5.74432e-06
1.51461e-05 1.27423e-05 -1.24603e-06
2.56895e-05 7.42223e-07 4.28445e-07
0.000348774 -0.00140457 0.000431731
-0.00203099 0.000245692 0.000712273
2.56942e-05 -2.89622e-07 -1.8105e-06
5.73721e-05 1.46406e-05 -1.6724e-05
1.67002e-05 1.65139e-06 -3.14868e-06
1.35604e-05 -1.22995e-07 1.555e-06
2.65124e-05 1.38971e-05 -1.8118e-05
1.63464e-05 -1.04202e-06 -3.20248e-07
2.98602e-05 7.57675e-06 -4.54057e-06
2.72175e-05 2.1709e-06 -1.41423e-06
3.48741e-05 1.78889e-05 -2.13506e-05
1.332e-05 5.49569e-06 -4.22766e-06
1.45464e-05 1.83307e-05 -6.58832e-06
8.29276e-06 1.19203e-05 -1.79211e-06
1.31309e-05 8.74713e-06 -5.58611e-06
5.58751e-05 1.97463e-05 -1.74391e-05
2.92126e-05 1.14077e-05 -1.70863e-05
2.21748e-05 -2.61601e-06 -9.03079e-07
3.08748e-05 -3.79681e-06 -8.63426e-07
1.29574e-05 -1.04618e-06 -1.04848e-06
1.98078e-05 3.57264e-06 1.50902e-06
1.4793e-05 6.5241e-07 -2.21941e-06
3.36404e-05 1.75742e-05 -1.68794e-05
0.000486901 -0.000656528 -0.000675394
5.76865e-05 1.18182e-05 -1.30105e-05
3.54388e-05 2.34301e-05 -2.50669e-05
4.51052e-05 2.48705e-05 -3.10567e-05
0.000411877 -0.00119789 0.00105319
8.64039e-06 -9.75175e-07 5.08799e-07
3.75119e-05 5.10521e-06 -6.80406e-06
6.38038e-05 5.73019e-06 -9.60644e-06
3.87003e-05 3.83204e-06 -5.38192e-06
2.44099e-05 6.21168e-06 2.40337e-06
5.64417e-05 7.76975e-06 -3.83891e-06
1.61412e-05 7.1705e-06 7.35571e-07
2.2229e-05 6.01153e-06 1.75284e-06
1.65787e-05 -2.83556e-06 4.79065e-07
1.69603e-05 7.34441e-06 -8.03094e-06
1.35999e-05 1.69642e-06 -3.24627e-06
1.67732e-05 1.63146e-06 -3.53145e-06
2.49622e-05 1.65002e-05 -1.7857e-05
3.05445e-05 1.20761e-05 -2.87491e-06
3.02008e-05 1.21049e-05 -1.36997e-05
1.84773e-05 1.18779e-05 -9.75989e-06
1.51213e-05 1.90645e-05 -3.74973e-06
0.000345693 -0.0008505 5.09426e-05
8.89051e-06 9.39606e-07 1.16927e-06
-0.000380173 0.00105009 0.000503155
9.16852e-06 7.2222e-06 -1.60788e-06
1.29068e-05 1.00016e-05 7.3732e-07
5.98794e-05 1.33746e-05 -1.81904e-05
2.09103e-05 1.23356e-05 -1.24782e-05
3.96619e-05 7.68111e-06 -1.22239e-05
3.31176e-05 4.82324e-06 -7.47502e-06
4.19565e-06 7.06536e-07 5.64915e-07
2.52978e-05 1.5217e-05 -1.85271e-05
3.46551e-05 9.00099e-06 -9.29417e-06
2.24884e-05 1.16401e-05 -3.20131e-07
3.3808e-05 -5.37591e-07 -3.68559e-06
1.54573e-05 3.21317e-06 -4.99043e-06
3.88891e-05 8.15824e-06 -9.32354e-06
3.61115e-05 1.29753e-06 -3.99941e-06
1.89846e-05 9.38664e-06 -1.0251e-05
3.04636e-05 2.48912e-05 -1.98941e-05
1.83e-05 2.28059e-06 1.79963e-06
4.18856e-05 1.3159e-05 -1.45215e-05
1.09733e-05 7.39074e-06 3.42596e-07
5.13273e-05 1.01477e-05 -1.57977e-05
1.214e-05 2.27283e-06 2.3585e-06
-0.00149603 -0.000350039 0.000521393
2.04423e-05 -2.37031e-06 4.94347e-07
2.93093e-05 3.11558e-06 -5.44617e-06
5.52086e-05 6.00775e-06 -8.0932e-06
1.45732e-05 3.63985e-06 1.93448e-06
2.48634e-05 3.43932e-06 -5.8081e-06
5.41292e-05 3.12188e-07 -5.60444e-06
0.000914654 -0.000676739 7.80325e-05
-0.00118855 -0.000240654 0.000582303
1.48518e-05 7.51328e-06 -6.50093e-06
5.80845e-05 1.02547e-05 -9.97026e-06
1.89335e-05 4.68111e-06 -7.67591e-06
2.80096e-05 1.09775e-05 -1.07681e-05
5.22553e-05 2.49558e-06 -4.15074e-06
3.36325e-05 -2.00714e-06 -2.56297e-06
2.58357e-05 1.89553e-05 -1.66628e-05
0.000599507 0.000330023 0.000640206
1.65403e-05 1.87686e-05 -1.04293e-05
4.89068e-06 2.04892e-06 -2.62529e-06
0.000802191 -0.00099457 -0.00030564
8.04954e-06 4.01436e-08 7.26521e-07
0.00182396 0.000434551 -0.000333504
1.93993e-05 2.03448e-05 -1.23281e-05
1.13105e-05 1.30852e-05 -9.09872e-06
-0.000212604 -0.000785221 0.000285062
1.94322e-05 8.60738e-06 -1.09074e-05
-0.000319487 -7.41935e-05 -0.000234561
1.24336e-05 4.83055e-06 -6.58955e-06
6.22209e-06 4.38206e-06 -9.13415e-07
1.40896e-05 7.55244e-06 -4.07879e-06
3.88854e-05 1.25867e-05 -1.5618e-05
7.97235e-06 3.48292e-06 -4.78242e-06
-0.00170215 -0.00160108 0.000146341
5.76386e-05 2.71161e-06 -9.24942e-06
9.94103e-06 6.92176e-07 -1.32465e-06
1.40405e-05 3.69846e-06 -4.36274e-06
-0.00156696 -0.00147264 0.00028104
9.40837e-06 1.69217e-05 -3.74306e-06
1.28783e-05 1.89655e-05 -8.06071e-06
1.36899e-05 4.31785e-06 -5.58323e-06
7.20647e-06 6.4418e-06 -6.00386e-06
4.10423e-06 1.29868e-06 -9.22005e-07
0.000574492 0.00174206 -0.00106135
-0.000600485 5.89198e-05 0.000456141
-0.000457659 -0.000621844 0.000429126
1.06846e-05 1.73587e-05 -6.60282e-06
3.99018e-06 5.50842e-06 -1.5252e-06
1.08283e-05 4.87607e-06 1.48622e-06
1.16159e-05 2.0231e-06 -1.58513e-06
9.73816e-05 -8.47542e-05 0.000379906
0.000396488 0.00126892 0.000319821
4.76835e-06 2.47114e-07 -6.21454e-07
7.9018e-06 -3.08136e-07 -6.64146e-07
1.97313e-05 5.66141e-06 3.92118e-07
6.31447e-06 -5.34383e-07 1.42842e-08
-0.000265142 0.00115264 -0.000274609
2.21093e-05 6.48293e-06 -2.33548e-06
2.92724e-06 5.0615e-06 -7.69957e-07
3.47126e-05 1.92735e-05 -2.50807e-05
4.61949e-06 8.94957e-08 2.34867e-07
2.32433e-05 2.95146e-06 -3.59755e-07
1.22815e-05 2.12405e-06 -2.06434e-06
-0.00153679 -0.00149973 0.000309469