# vtk DataFile Version 4.2
vtk output
ASCII
DATASET UNSTRUCTURED_GRID

POINTS 343 double
0.00155531 0.00421562 -1.92316e-05
0.00300355 0.00502422 0.00213986
0 0.00419538 0.00112517
0.00268698 0.00199143 0.00190979
0.00708826 0.00251737 0.00495774
0.00706731 0.00394815 0.00634907
0.0102572 0.00498455 0.00489802
0.00843675 0.00501015 0.00357612
0.0092582 0.00345676 0.00687046
0.00681345 0.00511108 0.00492681
0.00571646 0.00120502 0.00998792
0.00722164 0.00219462 0.00787753
0.00576119 7.17367e-05 0.00829338
0.00279493 0.00203812 0.00800109
0.00584705 0.00262117 0.00998736
0.00934661 0.00664771 0.00690695
0.00865515 0.00636057 0.00509887
0.00313939 0.00222607 0.00511269
0 0.00143586 0.00417514
0.00221488 0.00349367 0.00401306
0.00926282 0.00336005 0.00302173
0.0104683 0.0024005 0.00496317
0 0.00270918 0.00154168
0.00569255 0.00151604 -0.000105038
0.00685732 0.00229754 0.00208409
0.0054289 0.00361151 0.00151284
0.00188066 2.21858e-05 0.00403999
0.00575762 7.15508e-05 0.00159422
0.00358055 0.00700469 -6.08742e-05
0.00266618 0.00808758 0.00191202
0.00556671 0.00634043 0.00155187
0.0106433 0.00825517 0.00798436
0.0106801 0.00504032 0.00801071
0.0111911 0.0063396 0.00586766
0.013113 0.0092039 0.00404272
0.0101193 0.00788257 0.00486155
0.0112952 0.0103271 0.00403298
0.0106078 0.00824507 0.00182933
0.00487066 0.00310974 0.00691601
0.00606421 0.0037569 0.00829852
0.00537845 0.0016776 0.00591823
0.00676037 0.00779961 0.00764414
0.00273811 0.00804165 0.00796058
0.0038317 0.0100692 0.00708888
0.00532104 0.00849835 0.0059058
0 0.00695361 0.00262895
0.00227488 0.00626979 0.00406075
0 0.0040177 0.00850214
0.00319502 0.00502993 0.00762753
0.00197907 0.00420074 0.00997896
0.00956718 0.00733801 0.0100193
0.00824785 0.00613358 0.00840388
0.00282569 0.00797673 0.00470935
0.00417526 0.00700117 0.0064219
0.0021921 0.00610692 0.00590161
0.0131822 0.00610289 0.00830483
0 0.00718191 0.00711644
0.00218406 0.00580357 -2.90353e-05
0 0.00577432 0.00158701
0.0131546 0.00750608 0.00706881
0.00392054 0.00340512 0.00998293
0.0132689 0.00165507 0.00402145
0.0108395 0.00213514 0.00178476
0.0112596 0.00372741 0.00385675
0.00515421 0.00172204 0.0040703
0.00207081 0.0100268 0.00579173
0.00390176 4.53822e-05 0.00708806
0.0082758 0.00432066 0.00835977
0.0131585 0.00761226 0.00404593
0.0115024 0.000150171 0.00402974
0.00457687 0.00293832 -8.15032e-05
0.00370743 0.00158939 0.00998362
0.0039166 4.47315e-05 0.0027873
0.00653576 0.00530306 0.00752211
0.00436291 0.00320972 0.00311821
0 0.00849157 0.00581511
0.00666043 0.00377832 0.00370069
0.00213225 0.00273729 -2.77537e-05
0.00774604 0.00848538 0.0100115
0.00796187 0.0101897 0.00849508
0.00565853 0.0101151 0.00829146
0.00540564 0.00859902 0.00999351
0.0131242 0.0088374 0.00572248
0.0043168 0.006897 0.00310007
0 0.00748929 0.00137438
0.00188846 0.00751131 -2.3709e-05
0 0.00287343 0.00335182
0 0.00580816 0.00831736
0 0.00429792 0.00253898
0.00347442 0.00434762 -5.83631e-05
0.00197568 0.00584295 0.00997959
0.00702164 0.00659878 0.00634853
0.0049129 0.00658232 0.00820762
0.00935187 0.00277414 0.0100096
0.0107842 0.00212929 0.00802068
0.00944545 0.000123925 0.00293581
0.00819193 0.00178292 0.0034968
0.0132432 0.00311534 0.0031684
0 0.00140616 0.00256446
0.00854609 0.00841164 0.00636758
0.00788594 0.00154891 -0.000159398
0.00817391 0.00368452 0.00145316
0.00427761 0.0100804 0.00578128
0.0112906 0.0103245 0.00574968
0.00351953 0.00145289 -5.89397e-05
0.00812267 0.000100697 0.00134587
0.00842051 0.00847127 0.00350151
0.0114962 0.000150085 0.00575289
0.00843803 0.00179582 0.00631218
0.00194296 0.00258818 0.00997979
0.00949036 0.00739345 -0.000198011
0.0069716 0.00782477 0.00205265
0.00801175 0.00624398 0.00145467
0 0.00686719 0.00578184
0.0132608 0.00162355 0.00235891
0.00245787 0.00364217 0.00638011
0.0131143 0.00883658 0.00242254
0.011213 0.00643141 0.0039965
0.00796256 0.0101993 0.00134685
0.00944092 0.000119889 0.00688783
0.0132688 0.00165643 0.00573175
0.0112408 0.00377579 0.00598729
0.00209333 2.53666e-05 0.00579239
0 0.0013659 0.00748679
0.00189977 2.20462e-05 0.00750573
0.0131703 0.00719191 0.00568424
0.0077719 0.00866186 -0.000164481
0 0.0075208 0.00859127
0.00187779 0.00750589 0.00998195
0.00574396 0.00831101 0.00355507
0.0113234 0.0103231 0.00748311
0.0131112 0.00897815 0.00749319
0.00782196 0.00170109 0.0100038
0.00973383 0.00435944 0.0100139
0 0.0057735 0.00666667
0.00188035 0.0100253 0.00750527
0 0.00863025 0.00752641
0.0115281 0.000152464 0.00231901
0.0131587 0.00728779 0.00242795
0.0112605 0.00659576 0.00196843
0.0113158 0.00606275 0.0100284
0.0100664 0.00153166 0.010017
0.0115277 0.000152784 0.00748407
0.0132607 0.00158381 0.00745242
0 0.00143551 0.00581971
0.00812557 0.000100869 0.00849429
0.00579145 6.93474e-05 0.0033217
0.0106303 0.00491555 0.00184515
0.0132137 0.00456302 0.00232659
0.00569364 0.0101218 0.00662393
0.00384365 0.010071 0.00278497
0.00182651 2.11048e-05 0.00239805
0 0.00727418 0.00419576
0.013191 0.00606381 0.00660398
0.00925572 0.0102466 0.00294053
0.00995645 0.00887204 0.010022
0 0.00574334 0.00336387
0 0.0043297 0.00416652
0.00919594 0.0059575 0.0100155
0.0132408 0.00326227 0.00686427
0.00580578 6.94315e-05 0.00662584
0.00335839 0.0100609 0.0085863
0.0100688 0.00151992 -0.000207351
0.00775127 0.00680912 0.010008
0.0131363 0.00784588 0.0085879
0.0113976 0.00782172 0.0100315
0.00931053 0.00317253 -0.000191034
0.00457548 0.00581097 -8.28161e-05
0.00998292 0.00887804 -0.000208684
0.00993862 0.0102779 0.00120324
0.00776407 0.00701949 -0.000161838
0.00935843 0.00656454 0.00288935
0.0101364 0.000134754 0.00119747
0.00392774 0.00505026 0.0099838
0.0058623 0.00591869 0.00999494
0.00587756 0.0042504 0.00999192
0.00994643 0.0102649 0.00861449
0.0034169 3.85984e-05 0.0085843
0.0131941 0.00603068 0.00318073
0 0.00302218 0.00691532
0.0132164 0.00427224 0.00849403
0.0113319 0.00423068 -0.00024282
0.0132339 0.00295054 0.00130023
0 0.00244495 0.00857025
0.0033147 0.00861963 0.00998677
0.0101328 0.000135165 0.00861442
0.0113418 0.00281366 0.0100266
0.0117746 0.0044161 0.0100299
0.00759364 0.0101816 0.00577601
0.00701541 0.00771581 0.00496081
0.00755612 0.010183 0.0041229
0.00926033 0.0102402 0.00688765
0.00410248 0.00696736 0.00998771
0.00566293 0.00441658 -0.000109551
0.00392111 4.8121e-05 0.00436072
0.00435722 5.136e-05 0.00578133
0.0132018 0.0044601 0.000872544
0.00493061 0.0084249 0.00150846
0.013223 0.00459759 0.00401783
0.00894129 0.00594788 -0.000187354
0.0113194 0.0103315 0.00232753
0 0.00848692 0.00262374
0.00185629 0.0100234 0.00403896
0 0.00885053 0.00419359
0.00563683 0.00896283 -0.000110991
0.00565226 0.0101238 0.0015946
0.00680178 0.00490146 0.00226841
0.00968299 0.00470205 -0.000202575
0.00770223 9.6947e-05 0.00411587
0.00774075 9.69701e-05 0.00577397
0.00180153 0.0100236 0.00239808
0.011447 0.0026396 -0.000244526
0.0132128 0.00478981 0.00717872
0.00944356 0.0102531 0.00490697
0.00776465 0.00348508 0.0100006
0.00339704 3.66841e-05 0.00130834
0.013239 0.0026769 0.00856404
0.00330254 0.00483669 0.0049622
0.0078723 0.00446131 -0.000162153
0.0110635 0.00605169 -0.000233944
0.00733232 0.0101694 0.00718001
0.0132218 0.00459683 0.00574151
0.00723243 0.0101729 0.00266576
0.00963377 0.000122372 0.00490186
0.00385138 0.0100697 0.00435889
0 0.00452174 0.00721958
0.00609356 0.00732297 0.00999815
0.00747726 9.27951e-05 0.00718583
0.00494728 0.00514719 0.00353767
0.00573489 0.0101268 0.00494662
0.00584911 6.74194e-05 0.00494612
0.00503528 0.00529026 0.00612309
0 0.005744 0.00499998
0 0.00433013 0.00583333
0.00675406 0.00585879 -0.000137488
0.00676959 0.00645549 0.00346129
0.00737163 9.28508e-05 0.00266284
0.0131978 0.0060271 0.00487981
0.0050552 0.00648291 0.00478666
0.00774346 0.00512713 0.0100028
0.0131783 0.00606752 0.00134499
0 0.00666667 0
0.0113643 0.00779737 -0.000241037
0.00456491 5.18605e-05 -7.83449e-05
0 0.01 0.00666667
0.00666688 0.0101538 0.00999651
0 0.00288419 0.00499914
0.0131324 0.00783273 0.00112547
0.013137 0.00698354 -0.00027418
0 0.005 0.01
0.00678529 0.00298475 -0.000133922
0 0.005 0
0.0132712 0.000168442 0.00315035
0.0130591 0.0104029 0.00660829
0.00566611 0.00737247 -0.000111856
0.0132486 0.00311913 0.00487857
0.00680051 7.8197e-05 -0.000126284
0 0 0.00666667
0.00522449 0.0036919 0.00517073
0.00679706 8.58089e-05 0.00999579
0.0132714 0.000169375 0.00660917
0 0 0.005
0.011542 0.0103446 0.00100039
0.0130925 0.00914268 0.000970532
0.0132747 0.000168688 0.00488156
0.0131689 0.00528192 -0.000279062
0.00169213 0.00124345 -2.11008e-05
0 0.00122008 0.00122008
0 0.00333333 0.01
0 0.00666667 0.01
0.0115603 0.00909158 -0.000245118
0.0130597 0.0104076 0.00316
0.00568269 0.0101251 0.00332412
0.013138 0.00697468 0.0100425
0 0.00333333 0
0 0.00122008 0.00877992
0.00169053 1.97282e-05 0.00876319
0.00168789 0.00124136 0.00998239
0.0115507 0.0103307 0.00878547
0.001676 0.00880015 0.0099843
0 0.00877992 0.00877992
0.0131 0.00913228 0.00878287
0.00883593 0.01024 -0.000177986
0.0132542 0.00143188 0.000970559
0.00167177 0.0100243 0.00876108
0.0115788 0.00907992 0.0100333
0.0131755 0.00527616 0.0100411
0 0 0.00333333
0.00901121 0.000107757 -0.00017613
0.0117532 0.000155989 0.000993949
0.00168268 1.92138e-05 0.00118972
0 0.00877992 0.00122008
0.00167351 0.00880136 -2.16523e-05
0.00165833 0.0100237 0.00119211
0.013256 0.00143447 0.00878332
0.0117298 0.00140488 0.0100303
0.00900774 0.000115372 0.0100107
0.0117281 0.00139948 -0.000249815
0.0117545 0.000158912 0.00878802
0.0132017 0.00358399 -0.000280848
0.00447948 0.0100917 0.00998393
0.00333376 0.0100602 0.00130886
0.00883413 0.0102275 0.0100091
0.0132067 0.00357266 0.0100384
0 0.01 0.005
0.00355748 0.00854345 -6.05656e-05
0.0130627 0.0104068 0.00487589
0 0.01 0.00333333
0 0.00166667 0
0.0132628 0.000172478 0.00143051
0 0.00166667 0.01
0 0.00833333 0
0.0130865 0.00869153 -0.000280804
0.0132639 0.000175273 0.0083268
0.0130496 0.0104074 0.00143375
0.0130533 0.010398 0.00832486
0.00226473 0.0100418 0.0099811
0 0.01 0.00833333
0.0109614 0.010328 -0.000223805
0.0111698 0.000142132 -0.000228401
0.0111699 0.000151689 0.0100249
0.0109737 0.0103104 0.0100253
0 0 0.00833333
0.0130966 0.00867347 0.0100423
0.00230569 2.33335e-05 -3.07063e-05
0 0 0.00166667
0.00447837 0.0100917 -8.1168e-05
0.0132338 0.00189204 0.0100389
0.0132304 0.00188844 -0.000279718
0.00230005 2.63684e-05 0.00998201
0.00226346 0.0100382 -3.28801e-05
0 0.01 0.00166667
0.0130484 0.0103943 0.0100373
0 0 0.01
0.0130347 0.0104073 -0.000273711
0.0132587 0.000181003 0.0100384
0 0.01 0.01
0.0132541 0.000170641 -0.000274928
0 0.01 0
0 0 0
0.00667111 0.0101627 -0.000132699
0.00455849 5.86394e-05 0.00998873
0 0.00833333 0.01

CELLS 343 686
1 0
1 1
1 2
1 3
1 4
1 5
1 6
1 7
1 8
1 9
1 10
1 11
1 12
1 13
1 14
1 15
1 16
1 17
1 18
1 19
1 20
1 21
1 22
1 23
1 24
1 25
1 26
1 27
1 28
1 29
1 30
1 31
1 32
1 33
1 34
1 35
1 36
1 37
1 38
1 39
1 40
1 41
1 42
1 43
1 44
1 45
1 46
1 47
1 48
1 49
1 50
1 51
1 52
1 53
1 54
1 55
1 56
1 57
1 58
1 59
1 60
1 61
1 62
1 63
1 64
1 65
1 66
1 67
1 68
1 69
1 70
1 71
1 72
1 73
1 74
1 75
1 76
1 77
1 78
1 79
1 80
1 81
1 82
1 83
1 84
1 85
1 86
1 87
1 88
1 89
1 90
1 91
1 92
1 93
1 94
1 95
1 96
1 97
1 98
1 99
1 100
1 101
1 102
1 103
1 104
1 105
1 106
1 107
1 108
1 109
1 110
1 111
1 112
1 113
1 114
1 115
1 116
1 117
1 118
1 119
1 120
1 121
1 122
1 123
1 124
1 125
1 126
1 127
1 128
1 129
1 130
1 131
1 132
1 133
1 134
1 135
1 136
1 137
1 138
1 139
1 140
1 141
1 142
1 143
1 144
1 145
1 146
1 147
1 148
1 149
1 150
1 151
1 152
1 153
1 154
1 155
1 156
1 157
1 158
1 159
1 160
1 161
1 162
1 163
1 164
1 165
1 166
1 167
1 168
1 169
1 170
1 171
1 172
1 173
1 174
1 175
1 176
1 177
1 178
1 179
1 180
1 181
1 182
1 183
1 184
1 185
1 186
1 187
1 188
1 189
1 190
1 191
1 192
1 193
1 194
1 195
1 196
1 197
1 198
1 199
1 200
1 201
1 202
1 203
1 204
1 205
1 206
1 207
1 208
1 209
1 210
1 211
1 212
1 213
1 214
1 215
1 216
1 217
1 218
1 219
1 220
1 221
1 222
1 223
1 224
1 225
1 226
1 227
1 228
1 229
1 230
1 231
1 232
1 233
1 234
1 235
1 236
1 237
1 238
1 239
1 240
1 241
1 242
1 243
1 244
1 245
1 246
1 247
1 248
1 249
1 250
1 251
1 252
1 253
1 254
1 255
1 256
1 257
1 258
1 259
1 260
1 261
1 262
1 263
1 264
1 265
1 266
1 267
1 268
1 269
1 270
1 271
1 272
1 273
1 274
1 275
1 276
1 277
1 278
1 279
1 280
1 281
1 282
1 283
1 284
1 285
1 286
1 287
1 288
1 289
1 290
1 291
1 292
1 293
1 294
1 295
1 296
1 297
1 298
1 299
1 300
1 301
1 302
1 303
1 304
1 305
1 306
1 307
1 308
1 309
1 310
1 311
1 312
1 313
1 314
1 315
1 316
1 317
1 318
1 319
1 320
1 321
1 322
1 323
1 324
1 325
1 326
1 327
1 328
1 329
1 330
1 331
1 332
1 333
1 334
1 335
1 336
1 337
1 338
1 339
1 340
1 341
1 342

CELL_TYPES 343
1
1
1
1
1
1
1
1
1
1
1
1
1
1
1
1
1
1
1
1
1
1
1
1
1
1
1
1
1
1
1
1
1
1
1
1
1
1
1
1
1
1
1
1
1
1
1
1
1
1
1
1
1
1
1
1
1
1
1
1
1
1
1
1
1
1
1
1
1
1
1
1
1
1
1
1
1
1
1
1
1
1
1
1
1
1
1
1
1
1
1
1
1
1
1
1
1
1
1
1
1
1
1
1
1
1
1
1
1
1
1
1
1
1
1
1
1
1
1
1
1
1
1
1
1
1
1
1
1
1
1
1
1
1
1
1
1
1
1
1
1
1
1
1
1
1
1
1
1
1
1
1
1
1
1
1
1
1
1
1
1
1
1
1
1
1
1
1
1
1
1
1
1
1
1
1
1
1
1
1
1
1
1
1
1
1
1
1
1
1
1
1
1
1
1
1
1
1
1
1
1
1
1
1
1
1
1
1
1
1
1
1
1
1
1
1
1
1
1
1
1
1
1
1
1
1
1
1
1
1
1
1
1
1
1
1
1
1
1
1
1
1
1
1
1
1
1
1
1
1
1
1
1
1
1
1
1
1
1
1
1
1
1
1
1
1
1
1
1
1
1
1
1
1
1
1
1
1
1
1
1
1
1
1
1
1
1
1
1
1
1
1
1
1
1
1
1
1
1
1
1
1
1
1
1
1
1
1
1
1
1
1
1
1
1
1
1
1
1
1
1
1
1
1
1
1
1
1
1
1
1
1
1
1
1
1
1
1
1
1
1
1
1

POINT_DATA 343
FIELD FieldData 8

NodeID_(#) 1 343 int
0
1
2
3
4
5
6
7
8
9
10
11
12
13
14
15
16
17
18
19
20
21
22
23
24
25
26
27
28
29
30
31
32
33
34
35
36
37
38
39
40
41
42
43
44
45
46
47
48
49
50
51
52
53
54
55
56
57
58
59
60
61
62
63
64
65
66
67
68
69
70
71
72
73
74
75
76
77
78
79
80
81
82
83
84
85
86
87
88
89
90
91
92
93
94
95
96
97
98
99
100
101
102
103
104
105
106
107
108
109
110
111
112
113
114
115
116
117
118
119
120
121
122
123
124
125
126
127
128
129
130
131
132
133
134
135
136
137
138
139
140
141
142
143
144
145
146
147
148
149
150
151
152
153
154
155
156
157
158
159
160
161
162
163
164
165
166
167
168
169
170
171
172
173
174
175
176
177
178
179
180
181
182
183
184
185
186
187
188
189
190
191
192
193
194
195
196
197
198
199
200
201
202
203
204
205
206
207
208
209
210
211
212
213
214
215
216
217
218
219
220
221
222
223
224
225
226
227
228
229
230
231
232
233
234
235
236
237
238
239
240
241
242
243
244
245
246
247
248
249
250
251
252
253
254
255
256
257
258
259
260
261
262
263
264
265
266
267
268
269
270
271
272
273
274
275
276
277
278
279
280
281
282
283
284
285
286
287
288
289
290
291
292
293
294
295
296
297
298
299
300
301
302
303
304
305
306
307
308
309
310
311
312
313
314
315
316
317
318
319
320
321
322
323
324
325
326
327
328
329
330
331
332
333
334
335
336
337
338
339
340
341
342

Component_(#) 1 343 int
0
0
0
0
0
0
0
0
0
0
0
0
0
0
0
0
0
0
0
0
0
0
0
0
0
0
0
0
0
0
0
0
0
0
0
0
0
0
0
0
0
0
0
0
0
0
0
0
0
0
0
0
0
0
0
0
0
0
0
0
0
0
0
0
0
0
0
0
0
0
0
0
0
0
0
0
0
0
0
0
0
0
0
0
0
0
0
0
0
0
0
0
0
0
0
0
0
0
0
0
0
0
0
0
0
0
0
0
0
0
0
0
0
0
0
0
0
0
0
0
0
0
0
0
0
0
0
0
0
0
0
0
0
0
0
0
0
0
0
0
0
0
0
0
0
0
0
0
0
0
0
0
0
0
0
0
0
0
0
0
0
0
0
0
0
0
0
0
0
0
0
0
0
0
0
0
0
0
0
0
0
0
0
0
0
0
0
0
0
0
0
0
0
0
0
0
0
0
0
0
0
0
0
0
0
0
0
0
0
0
0
0
0
0
0
0
0
0
0
0
0
0
0
0
0
0
0
0
0
0
0
0
0
0
0
0
0
0
0
0
0
0
0
0
0
0
0
0
0
0
0
0
0
0
0
0
0
0
0
0
0
0
0
0
0
0
0
0
0
0
0
0
0
0
0
0
0
0
0
0
0
0
0
0
0
0
0
0
0
0
0
0
0
0
0
0
0
0
0
0
0
0
0
0
0
0
0
0
0
0
0
0
0
0
0
0
0
0
0
0
0
0
0
0
0
0
0
0
0
0
0
0
0
0
0
0
0
0
0
0
0
0
0

NodalMass_(kg) 1 343 double
3.15563e-06
1.41304e-05
2.20912e-06
1.71484e-05
8.42e-06
9.09306e-06
9.93033e-06
7.52198e-06
6.81096e-06
5.58223e-06
3.10888e-06
1.07575e-05
4.87011e-06
1.64955e-05
3.0246e-06
8.05984e-06
6.703e-06
1.0877e-05
4.18978e-06
8.16106e-06
6.14143e-06
1.17902e-05
2.23114e-06
4.25176e-06
1.09915e-05
7.41467e-06
4.21871e-06
3.92484e-06
3.08766e-06
1.31268e-05
7.72627e-06
1.65404e-05
1.19037e-05
7.29666e-06
3.81683e-06
1.11001e-05
3.81317e-06
1.39137e-05
6.37414e-06
8.00975e-06
7.6712e-06
1.18847e-05
1.6399e-05
2.78633e-06
8.93599e-06
2.58087e-06
7.57362e-06
4.23241e-06
1.31286e-05
3.80168e-06
2.7746e-06
7.16776e-06
1.21307e-05
5.11765e-06
8.19728e-06
4.58094e-06
2.79503e-06
3.26126e-06
4.12443e-06
2.11915e-06
3.35177e-06
3.61669e-06
1.56838e-05
7.33679e-06
8.24695e-06
5.00369e-06
2.82625e-06
7.20276e-06
3.26815e-06
4.18751e-06
2.02785e-06
2.42152e-06
3.11835e-06
5.97459e-06
5.87101e-06
4.09374e-06
5.45463e-06
2.28825e-06
4.49759e-06
4.38192e-06
4.50892e-06
4.39234e-06
4.27273e-06
5.32031e-06
1.53201e-06
2.38869e-06
2.02885e-06
4.38798e-06
3.17972e-06
3.14298e-06
4.61567e-06
5.87645e-06
8.18088e-06
2.48341e-06
1.53815e-05
3.49683e-06
7.35227e-06
2.01314e-06
2.0408e-06
7.98183e-06
4.41293e-06
7.1389e-06
1.20123e-06
5.03343e-06
1.61257e-06
4.12601e-06
8.73748e-06
4.37849e-06
7.97173e-06
2.13557e-06
3.38137e-06
9.48623e-06
7.40262e-06
1.80226e-06
2.10222e-06
7.98889e-06
1.87983e-06
7.44814e-06
4.19782e-06
2.37156e-06
4.31705e-06
6.06441e-06
4.30905e-06
2.16843e-06
1.8986e-06
1.81294e-06
3.89762e-06
2.44299e-06
1.65628e-06
8.01374e-06
1.64513e-06
2.3931e-06
3.01363e-06
2.99431e-06
1.36541e-06
1.87293e-06
2.09622e-06
1.94762e-06
1.87618e-06
6.37913e-06
4.58628e-06
2.02767e-06
1.61999e-06
2.41284e-06
3.8865e-06
4.44973e-06
2.29839e-06
1.17349e-05
3.11811e-06
1.354e-06
3.45063e-06
1.81846e-06
2.9382e-06
1.37381e-06
2.41464e-06
2.10451e-06
2.63927e-06
2.14166e-06
1.7943e-06
3.19976e-06
1.36989e-06
2.43489e-06
2.08158e-06
1.3601e-06
2.17203e-06
1.89924e-06
3.16996e-06
2.6119e-06
2.37677e-06
1.60225e-06
1.90684e-06
5.49206e-06
1.87878e-06
3.14313e-06
2.97301e-06
1.18454e-06
1.89263e-06
2.04166e-06
2.73572e-06
2.42405e-06
3.23083e-06
3.19752e-06
3.2142e-06
1.94492e-06
1.61196e-06
1.86876e-06
3.22435e-06
2.1114e-06
2.96917e-06
6.15288e-06
2.3097e-06
2.39729e-06
2.38029e-06
2.64508e-06
1.66557e-06
1.82377e-06
2.06583e-06
5.73271e-06
2.08467e-06
2.18324e-06
2.43522e-06
3.1188e-06
3.17316e-06
2.05447e-06
1.9592e-06
3.05718e-06
6.44327e-06
2.08796e-06
2.72615e-06
2.15709e-06
1.86812e-06
2.0028e-06
2.10999e-06
2.88994e-06
2.3222e-06
2.3979e-06
1.97629e-06
6.4127e-06
2.16225e-06
3.29198e-06
2.10223e-06
2.66566e-06
1.94415e-06
2.91865e-06
2.58116e-06
2.11703e-06
2.09534e-06
1.91719e-06
7.06046e-06
2.25203e-06
2.06378e-06
6.28159e-06
2.12147e-06
2.90924e-06
2.12921e-06
6.4487e-06
1.41701e-06
2.0682e-06
6.58062e-06
2.52584e-06
2.39732e-06
7.42191e-07
2.22368e-06
7.06751e-07
7.00657e-07
8.93749e-07
2.53536e-06
2.26535e-06
1.33607e-06
7.84725e-07
2.32303e-06
6.06694e-07
6.68276e-07
6.84307e-07
2.51242e-06
2.31629e-06
7.8367e-07
6.80839e-07
6.22692e-06
6.7471e-07
6.65305e-07
7.01158e-07
1.8232e-06
1.90695e-06
6.86722e-07
7.04792e-07
1.86445e-06
2.28572e-06
6.8045e-07
7.16005e-07
1.82373e-06
6.01079e-07
2.02791e-06
7.4579e-07
5.74423e-07
1.80052e-06
1.454e-06
2.2702e-06
1.80636e-06
2.15356e-06
1.79089e-06
1.79456e-06
6.8231e-07
2.24737e-06
1.45239e-06
1.79556e-06
6.97875e-07
6.24265e-07
6.62717e-07
1.44627e-06
1.40138e-06
2.15258e-06
1.82851e-06
1.3994e-06
1.43932e-06
2.19226e-06
6.97732e-07
1.77726e-06
1.79162e-06
6.54258e-07
7.3397e-07
2.34895e-06
7.10392e-07
6.56982e-07
6.26314e-07
2.18926e-06
6.12493e-07
6.03901e-07
5.92831e-07
5.12031e-07
5.11667e-07
4.9467e-07
4.97016e-07
4.96269e-07
5.33079e-07
4.94191e-07
4.97855e-07
4.86862e-07
4.90626e-07
4.94649e-07
4.94954e-07
4.91922e-07
4.89615e-07
4.96354e-07
4.95189e-07
4.82188e-07
1.10854e-06
5.3299e-07
5.44763e-07
5.36655e-07
5.15417e-07
5.01772e-07
5.53774e-07
5.53774e-07
5.53774e-07
5.53774e-07
5.53774e-07
5.53774e-07
5.50785e-07
5.50785e-07
7.45291e-07
7.11668e-07
4.9897e-07

NodalForce_(N) 3 343 double
-3.47414e-05 -3.56943e-06 2.80034e-06
-0.000296856 -3.44346e-05 2.17626e-05
-0.000299456 -0.00204996 -0.00250295
-0.000382031 -4.09705e-05 2.74616e-05
-0.000530095 -0.000103834 1.61212e-05
-0.000538305 -0.000118778 2.52128e-05
-0.000808056 -0.000297847 7.86473e-05
-0.000492456 -0.000145132 4.26683e-05
-0.000545491 -0.00017036 2.89457e-05
-0.000292351 -6.89567e-05 1.87539e-05
-0.000165511 -4.12913e-05 4.62733e-06
-0.000707588 -0.000174163 1.9009e-05
-0.000277627 -5.84734e-05 -2.72744e-06
-0.000392027 -2.47731e-05 2.02868e-05
-0.000156932 -3.54861e-05 6.78406e-06
-0.000547151 -0.000223442 5.92857e-05
-0.000418834 -0.000153192 4.74909e-05
-0.000292799 -1.50026e-05 4.76179e-06
0.00816212 -0.00304238 -0.00145871
-0.000144723 -6.5772e-06 -1.42218e-07
-0.000487065 -0.000133182 2.69268e-05
-0.00111866 -0.000350363 3.45246e-05
0.00464763 0.00635847 0.00558388
-0.000214486 -4.34073e-05 1.72312e-05
-0.000661098 -0.000133512 4.02664e-05
-0.000319998 -5.66506e-05 2.81458e-05
-7.28609e-05 -5.06004e-06 4.3025e-06
-0.000212296 -3.84132e-05 1.43118e-05
-6.47465e-05 -1.21644e-05 7.66179e-06
-0.000187448 -3.73375e-05 1.63089e-05
-0.000291395 -6.02252e-05 3.52984e-05
-0.0012398 -0.000603732 0.00018464
-0.00103659 -0.000418427 0.000100723
-0.000619244 -0.000265212 7.93784e-05
-0.000342644 -0.000177513 7.40164e-05
-0.000762339 -0.000352877 0.000123833
-0.000265723 -0.000151257 6.60977e-05
-0.000976788 -0.000443655 0.000185089
-0.000264671 -3.40875e-05 1.03011e-05
-0.000411308 -7.86383e-05 2.17446e-05
-0.000379519 -5.3424e-05 3.90098e-06
-0.000518009 -0.000209966 5.02218e-05
-0.000267764 -4.26491e-05 -6.74992e-06
-4.58192e-05 -2.00798e-05 -1.98469e-06
-0.000265981 -0.00010635 1.35917e-05
-0.00360692 -0.00473029 0.0014044
-0.000118261 -9.62635e-06 -2.64703e-06
0.00209524 -0.00480604 -0.00165876
-0.000312287 -1.40524e-05 1.17164e-05
-5.87952e-05 -2.59387e-06 3.68833e-06
-0.000196344 -8.68276e-05 2.12071e-05
-0.000441339 -0.000161249 3.9249e-05
-0.000202932 -2.69405e-05 -1.16254e-05
-0.000141702 -2.5035e-05 4.54347e-07
-0.000126768 -5.66832e-06 -1.29242e-06
-0.000490598 -0.000230623 7.00775e-05
5.56818e-05 -0.00264811 -0.00251367
-4.34658e-05 -6.74003e-06 3.45003e-06
0.00355587 -0.00171138 0.00396572
-0.000212031 -0.000104595 3.53906e-05
-0.000109049 -1.49728e-05 7.15617e-06
-0.000454331 -0.000167036 1.4418e-05
-0.00154318 -0.000453731 5.78238e-05
-0.000697885 -0.000244419 4.84264e-05
-0.00038199 -5.51525e-05 1.24476e-05
-4.46777e-05 -6.79286e-06 -6.55462e-06
-0.0001086 -1.3714e-05 2.71865e-08
-0.000494963 -0.000146506 3.14885e-05
-0.000315075 -0.000149795 4.97541e-05
-0.000486917 -0.000149605 -2.40594e-06
-7.41454e-05 -1.23396e-05 6.36003e-06
-8.02938e-05 -1.36502e-05 4.65599e-06
-0.000116646 -1.58726e-05 4.80305e-06
-0.000304964 -7.33229e-05 1.95133e-05
-0.000208345 -2.79651e-05 1.05646e-05
-0.000972943 -0.00368771 -0.00252542
-0.000297172 -5.91158e-05 1.59726e-05
-3.74612e-05 -2.95412e-06 2.59754e-06
-0.000235974 -0.000107225 2.5236e-05
-0.00020213 -0.00011291 3.19108e-05
-0.000127564 -6.87466e-05 1.0176e-05
-0.000144385 -5.94293e-05 8.20958e-06
-0.00039895 -0.000207082 8.19665e-05
-0.000149172 -2.90702e-05 1.12659e-05
0.00138852 0.00288055 -0.00247334
-2.32248e-05 -2.55548e-06 2.21316e-06
0.000777281 0.00152134 -0.000520423
-0.00122155 0.00150135 0.000829334
0.00334089 -0.00271721 0.0010891
-7.63407e-05 -1.17394e-05 8.10527e-06
-6.53905e-05 -5.17124e-06 5.93529e-06
-0.00029067 -9.43041e-05 2.51087e-05
-0.000287756 -5.93274e-05 1.94075e-05
-0.000214015 -7.12735e-05 1.10196e-05
-0.00157776 -0.000547875 7.0112e-05
-0.000327349 -8.23834e-05 6.12649e-06
-0.000553097 -0.000127189 1.98922e-05
-0.000236417 -8.79411e-05 1.37697e-05
0.00310297 -0.000135174 -0.00054573
-0.000440194 -0.000211545 6.03069e-05
-0.000319174 -6.91659e-05 2.12926e-05
-0.000487526 -0.000116399 3.41367e-05
-2.25125e-05 -1.1384e-05 9.63786e-07
-0.000361376 -0.00020628 8.31163e-05
-4.90471e-05 -8.59559e-06 4.214e-06
-0.000326542 -6.94155e-05 1.49646e-05
-0.000456149 -0.000214292 7.70037e-05
-0.000516834 -0.000167185 2.64905e-06
-0.00062258 -0.000159146 4.48418e-06
-3.47095e-05 -1.45172e-06 2.37247e-06
-0.000215007 -7.86985e-05 3.65809e-05
-0.000409434 -0.000156332 6.76461e-05
-0.000419664 -0.000124662 5.26685e-05
0.00394832 0.00101909 0.00453894
-0.000261631 -9.20305e-05 9.87211e-06
-0.000155403 -1.85863e-06 5.52654e-06
-0.000171523 -8.28332e-05 3.04816e-05
-0.000620173 -0.000264617 8.23267e-05
-0.000178448 -9.76786e-05 4.75858e-05
-0.000229687 -6.42686e-05 -2.02391e-06
-0.000551056 -0.00021545 2.13558e-05
-0.000585787 -0.000222106 4.40648e-05
-8.1352e-05 -4.34478e-06 1.57541e-06
0.000546643 -0.000940868 -0.00139466
-3.22932e-05 -1.6654e-06 9.6135e-07
-0.000181401 -8.43698e-05 2.74032e-05
-0.000176395 -7.44532e-05 3.7565e-05
0.00381204 -0.000824921 0.000537679
-1.92153e-05 -5.35067e-07 4.04349e-07
-0.00026357 -0.000106022 3.08548e-05
-0.000122393 -6.56921e-05 2.01688e-05
-0.000228388 -0.000111833 3.73776e-05
-0.000222727 -6.55969e-05 7.54227e-06
-0.000250186 -9.16402e-05 1.84257e-05
0.00351953 0.00472689 -0.00177768
-1.58221e-05 -2.22508e-06 -5.66833e-07
0.00347633 -0.00119572 0.000773737
-0.000224705 -6.8605e-05 4.41469e-06
-0.000182779 -8.31376e-05 2.55275e-05
-0.000527284 -0.000217976 7.09821e-05
-0.000419791 -0.000184634 4.51991e-05
-0.000199892 -7.0241e-05 7.08919e-06
-0.00019668 -6.65444e-05 3.51326e-06
-0.000315561 -0.000125187 1.85838e-05
0.00433054 -0.00229677 0.00192581
-0.000366966 -9.69673e-05 -1.72964e-06
-0.00012953 -2.34148e-05 3.32424e-06
-0.000989025 -0.000341918 8.95565e-05
-0.000342908 -0.000133 2.73905e-05
-3.60491e-05 -2.0887e-05 3.03031e-06
-5.15245e-05 -2.55448e-05 7.68435e-06
-3.03525e-05 -2.41565e-06 2.22441e-06
0.00313555 -0.000666152 -0.000563497
-0.000145655 -6.49604e-05 1.80101e-05
-0.000126947 -7.28516e-05 3.05354e-05
-0.000145702 -7.18701e-05 1.77016e-05
-0.00112732 0.00295288 -0.000521737
0.0124022 -0.00539836 -0.00872452
-0.000130106 -5.04428e-05 1.23276e-05
-0.00038233 -0.000162347 2.62946e-05
-7.96506e-05 -1.44222e-05 -1.48042e-06
-3.41082e-05 -1.34528e-05 -1.32145e-07
-0.000196708 -5.29123e-05 9.87961e-06
-7.7797e-05 -2.93574e-05 7.02567e-06
-0.0002197 -0.000103211 3.19184e-05
-0.000164818 -7.69554e-05 1.95381e-05
-0.000255486 -6.38805e-05 1.7115e-05
-7.96759e-05 -1.30732e-05 9.70709e-06
-0.000146599 -6.71354e-05 3.11743e-05
-9.24619e-05 -5.03109e-05 2.34449e-05
-9.77313e-05 -3.00952e-05 1.54941e-05
-0.000365123 -0.000138417 4.86671e-05
-0.000189612 -5.14634e-05 6.17186e-06
-9.62011e-05 -1.22339e-05 7.9427e-06
-0.000134446 -3.27308e-05 9.94114e-06
-5.81758e-05 -1.1722e-05 3.78876e-06
-0.000119015 -6.46817e-05 1.8548e-05
-6.86173e-05 -9.27833e-06 7.74916e-07
-0.000282588 -0.000123222 3.24683e-05
0.000953721 0.00319423 0.00166612
-0.000375528 -0.000165062 3.65914e-05
-0.000299072 -9.74862e-05 2.3593e-05
-0.000377101 -0.000132517 2.09563e-05
0.00152982 0.00111812 -0.00227312
-3.03735e-05 -7.9342e-06 6.81782e-07
-0.00019896 -6.43103e-05 1.07015e-06
-0.000345606 -0.000133461 1.9486e-05
-0.000219376 -9.55831e-05 1.92001e-05
-0.000119792 -7.15278e-05 1.84349e-05
-0.000275246 -0.000109769 2.91598e-05
-9.11292e-05 -5.40116e-05 1.61918e-05
-0.000133767 -7.58263e-05 2.31751e-05
-6.9315e-05 -1.12509e-05 4.18529e-06
-0.000113775 -1.99712e-05 1.15812e-05
-6.23088e-05 -8.65271e-06 2.19738e-06
-7.79933e-05 -1.03731e-05 8.08758e-07
-0.000228134 -8.51832e-05 1.78491e-05
-0.000153382 -5.78569e-05 2.60485e-05
-0.000230103 -9.26834e-05 2.23715e-05
-0.000142565 -4.10076e-05 1.76722e-05
-0.000168849 -9.34502e-05 4.01107e-05
0.00122351 0.00126654 -0.000998417
-2.73166e-05 -4.80565e-06 -2.13116e-06
0.00239135 -0.00182595 3.64131e-05
-5.53715e-05 -2.40813e-05 1.27112e-05
-7.82954e-05 -4.38953e-05 1.94965e-05
-0.000334542 -7.25732e-05 2.82679e-05
-0.000160444 -4.68852e-05 1.45e-05
-0.000207478 -4.60023e-05 3.9032e-06
-0.000166276 -3.82375e-05 -8.60002e-07
-1.43876e-05 -2.79293e-06 6.15778e-07
-0.000203061 -6.24385e-05 1.21383e-05
-0.000237081 -0.000101383 2.32528e-05
-0.000159998 -9.30956e-05 3.37963e-05
-0.000157698 -4.45973e-05 8.68366e-06
-7.64662e-05 -1.18006e-05 7.32792e-06
-0.000248074 -0.000103366 1.80804e-05
-0.000159842 -1.29966e-05 1.66414e-07
-0.000136031 -3.08616e-05 1.23682e-05
-0.000273215 -9.4832e-05 3.27632e-05
-8.19339e-05 -4.81827e-05 1.10367e-05
-0.000297887 -0.000124352 3.06498e-05
-7.23822e-05 -4.14135e-05 1.73179e-05
-0.000283449 -7.68266e-05 -1.40906e-06
-3.96663e-05 -1.92439e-05 7.89304e-07
0.00368287 -0.00124234 -0.0027691
-8.87494e-05 -3.00813e-05 6.53549e-06
-0.000143596 -3.33291e-05 -2.80501e-06
-0.000257767 -4.05627e-05 1.28305e-05
-5.90683e-05 -3.48693e-05 6.53342e-06
-0.000120121 -2.1658e-05 3.04394e-06
-0.000239474 -3.79249e-05 7.78113e-06
0.0026475 0.0094992 -0.00142793
0.00414544 -0.00339786 0.0039444
-0.000101846 -2.13861e-05 1.31901e-05
-0.000301668 -8.642e-05 2.98419e-05
-0.000101414 -2.12592e-05 3.32385e-06
-0.000215918 -9.5258e-05 2.79796e-05
-0.000228449 -4.76888e-05 9.12307e-06
-0.000157765 -4.79617e-05 1.19655e-05
-0.000246436 -0.000102794 2.76298e-05
-0.00406623 0.000882137 -0.00348984
-0.000174088 -7.23322e-05 3.008e-05
-3.00506e-05 -5.78266e-06 3.0444e-06
-0.00397784 0.00366974 -0.00107228
-3.41862e-05 -1.75944e-05 3.26562e-06
0.000699413 0.00375787 0.000482833
-0.000214728 -9.67822e-05 3.41791e-05
-0.000130914 -5.34324e-05 1.83559e-05
-0.00129119 0.000392781 0.00106187
-0.000134403 -2.7441e-05 1.0372e-05
-0.000239634 -0.000295442 -0.000632745
-8.94612e-05 -3.10763e-05 1.50508e-06
-6.1134e-05 -3.25376e-05 1.14559e-05
-8.56721e-05 -2.37443e-05 1.37573e-05
-0.000274652 -0.000109147 1.90403e-05
-5.07897e-05 -1.02405e-05 3.99607e-06
0.000580982 0.000792813 0.00103185
-0.000267198 -3.7293e-05 5.04597e-06
-4.60523e-05 -1.2979e-05 -5.09029e-07
-9.20396e-05 -3.39109e-05 3.33698e-06
0.000276094 -0.000645347 0.000256049
-0.00013018 -6.89197e-05 3.02183e-05
-0.000171071 -8.19465e-05 3.11241e-05
-9.3404e-05 -3.36095e-05 1.19799e-06
-7.49239e-05 -2.78811e-05 7.27896e-06
-2.57445e-05 -4.01811e-06 2.04487e-06
0.00615485 -0.00131745 0.00208832
-0.000226572 -0.000777331 0.000927748
-0.00217828 -0.00178973 0.00198962
-0.000137639 -6.41178e-05 2.7918e-05
-5.12834e-05 -2.82385e-05 1.14519e-05
-5.25518e-05 -3.06205e-05 9.8434e-06
-7.976e-05 -3.56219e-05 1.01242e-05
-0.00178064 0.00349672 -0.00204913
0.00338318 -0.000768556 0.000241028
-2.23869e-05 -1.68033e-06 -1.93584e-09
-3.30618e-05 -2.89341e-06 2.39211e-06
-0.000142056 -7.39608e-05 2.26016e-05
-1.93943e-05 -2.35604e-06 -3.21307e-07
0.00608885 -0.00340076 0.000898611
-0.000174336 -8.36832e-05 2.72854e-05
-3.26369e-05 -1.75079e-05 8.50563e-06
-0.00028007 -9.77903e-05 1.35062e-05