# vtk DataFile Version 4.2
vtk output
ASCII
DATASET UNSTRUCTURED_GRID

POINTS 343 double
0.00112204 0.00419492 8.92898e-08
0.00217032 0.00498256 0.00217526
0 0.00419538 0.00112517
0.00192952 0.00195448 0.00194209
0.00516884 0.00240703 0.00503129
0.00517204 0.00383026 0.00639645
0.00762141 0.0047758 0.00499662
0.00622293 0.00485069 0.00369036
0.00683629 0.00328891 0.00691194
0.00499022 0.00499274 0.00499893
0.00418172 0.00111823 0.00999812
0.00528164 0.00208045 0.00790272
0.00419107 -7.37072e-06 0.00831625
0.00201256 0.00200251 0.00803314
0.00428743 0.00253303 0.00999811
0.00695636 0.00644716 0.00694479
0.00641266 0.00618274 0.00518143
0.00226036 0.00218466 0.00514596
0 0.00143586 0.00417514
0.00159426 0.00346615 0.00403699
0.00683525 0.00319421 0.00315978
0.0077445 0.00221333 0.00506152
0 0.00270918 0.00154168
0.00415623 0.00142858 -4.00333e-07
0.00500611 0.00218797 0.00219706
0.00396089 0.00352683 0.00160253
0.00134521 -6.34087e-07 0.00405997
0.00418195 -7.82734e-06 0.00168764
0.0026246 0.00695169 -5.02247e-08
0.00193744 0.00805273 0.00194483
0.00408579 0.00624818 0.00164449
0.00800313 0.00798636 0.00799429
0.00796538 0.00481595 0.00801935
0.00838743 0.00607996 0.00594494
0.00999665 0.00882583 0.00418799
0.00757542 0.007636 0.00496132
0.00856461 0.00998022 0.0041635
0.00797328 0.00797143 0.00201348
0.00353607 0.00303664 0.00695903
0.00443802 0.00366207 0.00832298
0.00389224 0.0016006 0.00596853
0.00500554 0.00766849 0.00767544
0.00198957 0.00800793 0.00798952
0.0028271 0.0099973 0.00712689
0.00391593 0.00839962 0.00595726
0 0.00695361 0.00262895
0.00164608 0.00623929 0.00408783
0 0.0040177 0.00850214
0.00231504 0.00498574 0.00766133
0.00143352 0.00417449 0.00999991
0.00717628 0.00711839 0.00999519
0.0061188 0.00597099 0.00841542
0.00205138 0.00794143 0.00474174
0.00304337 0.00694296 0.00646741
0.00158675 0.00607837 0.00592594
0.0099895 0.00578404 0.00831023
0 0.00718191 0.00711644
0.00158377 0.00577346 1.36644e-08
0 0.00577432 0.00158701
0.00999344 0.00715775 0.00710978
0.00286845 0.00334938 0.00999923
0.0099685 0.00140913 0.00417013
0.00803355 0.00194304 0.0019765
0.00838755 0.00350231 0.00399536
0.00372521 0.00164808 0.00412792
0.00150903 0.00999966 0.00581497
0.00280981 -3.58791e-06 0.00712743
0.0061106 0.00417167 0.00837391
0.00999063 0.00724977 0.00419031
0.00852724 -2.21144e-05 0.00416442
0.00333988 0.00286972 -2.21463e-07
0.00270133 0.00153889 0.00999929
0.00281786 -4.01115e-06 0.00283182
0.00479815 0.00519423 0.00755306
0.00315742 0.00314635 0.00316708
0 0.00849157 0.00581511
0.00486363 0.00366966 0.00378535
0.0015364 0.00270867 9.74489e-09
0.00580093 0.0083162 0.00999645
0.00598512 0.00998946 0.00850293
0.00421419 0.00999414 0.00831631
0.00401868 0.00849848 0.00999799
0.00999701 0.00846717 0.00580888
0.00314641 0.0068336 0.00315059
0 0.00748929 0.00137438
0.00137266 0.00748897 1.96531e-08
0 0.00287343 0.00335182
0 0.00580816 0.00831736
0 0.00429792 0.00253898
0.0025321 0.00429596 -2.92564e-08
0.00143414 0.00581918 0.00999991
0.00517502 0.00646878 0.00639888
0.00360367 0.00650947 0.00823312
0.00693434 0.00261326 0.00999566
0.00800049 0.00193998 0.008031
0.00694031 -1.65255e-05 0.00307998
0.00599942 0.00165257 0.00361134
0.00997302 0.00284764 0.00334708
0 0.00140616 0.00256446
0.00637272 0.00821697 0.00641845
0.00579374 0.00142337 -8.49501e-07
0.00601959 0.00354117 0.00160179
0.00315643 0.00999655 0.00582475
0.00856101 0.00998043 0.00582848
0.00255273 0.00140303 -4.40508e-08
0.00594792 -1.3182e-05 0.00149317
0.0062782 0.00827697 0.00361534
0.00852374 -2.19201e-05 0.0058291
0.00618681 0.00166071 0.006363
0.0014026 0.00256406 0.00999996
0.00710705 0.00716805 -2.15139e-06
0.00516273 0.00768246 0.00216775
0.00593354 0.00608405 0.00160038
0 0.00686719 0.00578184
0.00996669 0.00137919 0.0025601
0.0017722 0.0036099 0.00640776
0.00999369 0.00846216 0.00261868
0.00840135 0.0061709 0.00412902
0.00597962 0.00998877 0.00149208
0.0069426 -1.61725e-05 0.00692339
0.00997029 0.00140896 0.00581391
0.00837893 0.00355427 0.00605657
0.00150186 -7.83177e-07 0.00581514
0 0.0013659 0.00748679
0.00136384 -6.36869e-07 0.00752889
0.00999078 0.00684294 0.00577571
0.00581137 0.00848139 -1.44545e-06
0 0.0075208 0.00859127
0.00136535 0.00748648 0.00999981
0.00422946 0.00820044 0.00362758
0.00859563 0.00998031 0.00750672
0.00999947 0.00860597 0.0075194
0.00575722 0.00157578 0.00999672
0.00724744 0.00417386 0.0099953
0 0.0057735 0.00666667
0.00137018 0.00999959 0.00752889
0 0.00863025 0.00752641
0.00855217 -2.25649e-05 0.00250438
0.00998779 0.00692901 0.00262405
0.00844708 0.00632337 0.00215955
0.00850198 0.00580547 0.00999398
0.00746795 0.00135716 0.00999501
0.00855822 -2.2111e-05 0.00750694
0.00997177 0.00133944 0.0074802
0 0.00143551 0.00581971
0.00595375 -1.26254e-05 0.00850293
0.00419245 -7.83612e-06 0.00339939
0.007917 0.00469059 0.0020317
0.00997755 0.00427283 0.00253437
0.00423104 0.00999392 0.00666533
0.00283531 0.00999737 0.00283166
0.00130672 -7.00171e-07 0.00241832
0 0.00727418 0.00419576
0.00998753 0.00574929 0.00666021
0.00697468 0.00998564 0.00307902
0.00750985 0.00862187 0.00999483
0 0.00574334 0.00336387
0 0.0043297 0.00416652
0.00686375 0.00577187 0.00999566
0.00997739 0.00299682 0.00690888
0.00420648 -7.58059e-06 0.00666571
0.00248051 0.00999768 0.00861104
0.00745591 0.00134799 -1.83752e-06
0.00577186 0.00665791 0.00999649
0.00999636 0.00749675 0.00858392
0.00860715 0.00753494 0.00999378
0.00689139 0.00300765 -1.49157e-06
0.00335678 0.00574053 -1.48401e-07
0.00752134 0.00861442 -2.61616e-06
0.00751528 0.00998345 0.00138446
0.00577327 0.00685784 -1.35548e-06
0.00696561 0.00635784 0.00303103
0.00747977 -1.88507e-05 0.00138568
0.00288132 0.00499726 0.0099991
0.00432676 0.00582883 0.00999784
0.0043228 0.00416173 0.0099979
0.00752216 0.00998407 0.00861121
0.00246556 -2.9865e-06 0.00861127
0.00998381 0.00571881 0.0033589
0 0.00302218 0.00691532
0.00998281 0.00399304 0.00849504
0.00847837 0.00399782 -2.68937e-06
0.00997058 0.00268302 0.00153759
0 0.00244495 0.00857025
0.00244655 0.00856829 0.0099991
0.00748678 -1.82335e-05 0.00861116
0.00846825 0.00260409 0.00999401
0.00883754 0.00417363 0.00999363
0.00567436 0.00999005 0.0058312
0.00518374 0.00757611 0.0050309
0.00564537 0.00998999 0.00421345
0.00697685 0.00998599 0.006923
0.00302147 0.00691339 0.0099988
0.00415471 0.00432479 -3.39839e-07
0.00282115 -4.10348e-06 0.00440452
0.00313767 -4.58079e-06 0.00582522
0.00997577 0.00416999 0.00112104
0.00363597 0.00833332 0.00158773
0.00997938 0.00430477 0.00416132
0.0066529 0.00576121 -1.57672e-06
0.00858972 0.00997986 0.00250317
0 0.00848692 0.00262374
0.00135168 0.00999966 0.00405983
0 0.00885053 0.00419359
0.00419191 0.00884447 -6.62662e-07
0.00420617 0.00999375 0.00168691
0.00498789 0.00478466 0.00237791
0.00720027 0.00450693 -1.79359e-06
0.00561544 -1.20766e-05 0.0042143
0.00564451 -1.19877e-05 0.00583169
0.00131303 0.00999967 0.00241806
0.0085405 0.00242394 -2.59657e-06
0.00998337 0.00449718 0.00721294
0.00711841 0.00998537 0.00499704
0.00573182 0.0033545 0.00999676
0.00244484 -3.28842e-06 0.00135657
0.00997692 0.00241924 0.00856322
0.00239133 0.00478983 0.00499973
0.00581654 0.00432016 -1.0004e-06
0.00830071 0.0057896 -2.84687e-06
0.0054842 0.00999078 0.00721813
0.00998113 0.00430537 0.00582736
0.00540466 0.00999055 0.00277408
0.00708371 -1.6793e-05 0.00499779
0.00283811 0.00999737 0.0044041
0 0.00452174 0.00721958
0.00452123 0.00721477 0.00999763
0.00545495 -1.11926e-05 0.00721816
0.00359695 0.0050706 0.00359612
0.00425502 0.00999387 0.00500718
0.00422981 -7.78365e-06 0.00500789
0.00366585 0.00521359 0.00617395
0 0.005744 0.00499998
0 0.00433013 0.00583333
0.00498946 0.00573736 -7.12675e-07
0.00497861 0.00633262 0.00355276
0.00537531 -1.1443e-05 0.00277501
0.00998558 0.00571967 0.00499428
0.003687 0.00640452 0.00484339
0.00573744 0.00499158 0.00999666
0.00998217 0.00574955 0.00158261
0 0.00666667 0
0.00858064 0.00750142 -3.33434e-06
0.00331471 -6.07349e-06 3.93222e-07
0 0.01 0.00666667
0.00500726 0.00999183 0.00999739
0 0.00288419 0.00499914
0.00998862 0.00746456 0.00136986
0.0099842 0.00664186 -4.38236e-06
0 0.005 0.01
0.00498053 0.00287596 -6.49614e-07
0 0.005 0
0.00996213 -2.78606e-05 0.00332884
0.0100038 0.00997484 0.00665991
0.00419033 0.00726916 -5.73313e-07
0.00997474 0.00285863 0.00499365
0.00497346 -1.08286e-05 -1.09285e-07
0 0 0.00666667
0.00378992 0.00361283 0.00522577
0.00498052 -1.02697e-05 0.00999697
0.00996567 -2.75679e-05 0.0066605
0 0 0.005
0.00877958 0.00997893 0.00121623
0.00999346 0.00875478 0.00121539
0.00996386 -2.76734e-05 0.00499468
0.00997785 0.00497469 -4.11172e-06
0.0012151 0.00121928 -1.96421e-08
0 0.00122008 0.00122008
0 0.00333333 0.01
0 0.00666667 0.01
0.00877388 0.00875929 -3.67778e-06
0.0100003 0.00997444 0.00332782
0.00421745 0.00999383 0.00339879
0.00999457 0.00664273 0.00999241
0 0.00333333 0
0 0.00122008 0.00877992
0.00121514 -8.10117e-07 0.00877962
0.00121639 0.00121953 0.0100001
0.0087873 0.00997957 0.00877384
0.00122011 0.00877949 0.00999982
0 0.00877992 0.00877992
0.0100015 0.00875558 0.00877252
0.00666692 0.00998618 -2.40616e-06
0.00996457 0.00119276 0.00121625
0.00122094 0.00999945 0.00877999
0.00878414 0.00876019 0.00999363
0.00998818 0.00497573 0.00999246
0 0 0.00333333
0.00663338 -1.6013e-05 -8.97081e-07
0.00874183 -2.35223e-05 0.00121755
0.00120561 -8.94128e-07 0.00121202
0 0.00877992 0.00122008
0.00121921 0.00877938 7.98876e-08
0.00121162 0.00999951 0.00121136
0.00997252 0.00119343 0.00877268
0.0087555 0.00119795 0.0099936
0.0066424 -1.54818e-05 0.00999528
0.00874519 0.00119724 -2.61189e-06
0.00874972 -2.29192e-05 0.00877371
0.00997155 0.0033074 -3.88219e-06
0.00333864 0.00999568 0.0099989
0.00246018 0.00999791 0.00135612
0.00667556 0.00998698 0.00999589
0.00998182 0.00330838 0.00999246
0 0.01 0.005
0.00262203 0.00848464 -7.98256e-08
0.010002 0.00997466 0.00499397
0 0.01 0.00333333
0 0.00166667 0
0.00996042 -2.81258e-05 0.00166287
0 0.00166667 0.01
0 0.00833333 0
0.00999069 0.00830817 -4.61843e-06
0.00996746 -2.7602e-05 0.00832614
0.00999863 0.00997422 0.0016617
0.0100056 0.0099749 0.00832603
0.00166908 0.00999852 0.00999971
0 0.01 0.00833333
0.00833244 0.00998034 -3.55044e-06
0.00829524 -2.21927e-05 -2.06939e-06
0.00830534 -2.1565e-05 0.00999374
0.00834221 0.00998103 0.00999415
0 0 0.00833333
0.0100011 0.00830915 0.00999235
0.00165722 -2.15412e-06 1.57375e-07
0 0 0.00166667
0.00333478 0.00999579 -4.33371e-07
0.00997549 0.00164021 0.00999239
0.00996516 0.00163946 -3.71267e-06
0.00165951 -1.72907e-06 0.00999982
0.00166738 0.00999881 -5.30066e-08
0 0.01 0.00166667
0.0100075 0.00997498 0.00999241
0 0 0.01
0.00999707 0.00997401 -4.93903e-06
0.00996919 -2.77221e-05 0.00999209
0 0.01 0.01
0.00995881 -2.83177e-05 -3.42952e-06
0 0.01 0
0 0 0
0.00500094 0.00999132 -1.27352e-06
0.00331974 -5.48779e-06 0.00999838
0 0.00833333 0.01

CELLS 343 686
1 0
1 1
1 2
1 3
1 4
1 5
1 6
1 7
1 8
1 9
1 10
1 11
1 12
1 13
1 14
1 15
1 16
1 17
1 18
1 19
1 20
1 21
1 22
1 23
1 24
1 25
1 26
1 27
1 28
1 29
1 30
1 31
1 32
1 33
1 34
1 35
1 36
1 37
1 38
1 39
1 40
1 41
1 42
1 43
1 44
1 45
1 46
1 47
1 48
1 49
1 50
1 51
1 52
1 53
1 54
1 55
1 56
1 57
1 58
1 59
1 60
1 61
1 62
1 63
1 64
1 65
1 66
1 67
1 68
1 69
1 70
1 71
1 72
1 73
1 74
1 75
1 76
1 77
1 78
1 79
1 80
1 81
1 82
1 83
1 84
1 85
1 86
1 87
1 88
1 89
1 90
1 91
1 92
1 93
1 94
1 95
1 96
1 97
1 98
1 99
1 100
1 101
1 102
1 103
1 104
1 105
1 106
1 107
1 108
1 109
1 110
1 111
1 112
1 113
1 114
1 115
1 116
1 117
1 118
1 119
1 120
1 121
1 122
1 123
1 124
1 125
1 126
1 127
1 128
1 129
1 130
1 131
1 132
1 133
1 134
1 135
1 136
1 137
1 138
1 139
1 140
1 141
1 142
1 143
1 144
1 145
1 146
1 147
1 148
1 149
1 150
1 151
1 152
1 153
1 154
1 155
1 156
1 157
1 158
1 159
1 160
1 161
1 162
1 163
1 164
1 165
1 166
1 167
1 168
1 169
1 170
1 171
1 172
1 173
1 174
1 175
1 176
1 177
1 178
1 179
1 180
1 181
1 182
1 183
1 184
1 185
1 186
1 187
1 188
1 189
1 190
1 191
1 192
1 193
1 194
1 195
1 196
1 197
1 198
1 199
1 200
1 201
1 202
1 203
1 204
1 205
1 206
1 207
1 208
1 209
1 210
1 211
1 212
1 213
1 214
1 215
1 216
1 217
1 218
1 219
1 220
1 221
1 222
1 223
1 224
1 225
1 226
1 227
1 228
1 229
1 230
1 231
1 232
1 233
1 234
1 235
1 236
1 237
1 238
1 239
1 240
1 241
1 242
1 243
1 244
1 245
1 246
1 247
1 248
1 249
1 250
1 251
1 252
1 253
1 254
1 255
1 256
1 257
1 258
1 259
1 260
1 261
1 262
1 263
1 264
1 265
1 266
1 267
1 268
1 269
1 270
1 271
1 272
1 273
1 274
1 275
1 276
1 277
1 278
1 279
1 280
1 281
1 282
1 283
1 284
1 285
1 286
1 287
1 288
1 289
1 290
1 291
1 292
1 293
1 294
1 295
1 296
1 297
1 298
1 299
1 300
1 301
1 302
1 303
1 304
1 305
1 306
1 307
1 308
1 309
1 310
1 311
1 312
1 313
1 314
1 315
1 316
1 317
1 318
1 319
1 320
1 321
1 322
1 323
1 324
1 325
1 326
1 327
1 328
1 329
1 330
1 331
1 332
1 333
1 334
1 335
1 336
1 337
1 338
1 339
1 340
1 341
1 342

CELL_TYPES 343
1
1
1
1
1
1
1
1
1
1
1
1
1
1
1
1
1
1
1
1
1
1
1
1
1
1
1
1
1
1
1
1
1
1
1
1
1
1
1
1
1
1
1
1
1
1
1
1
1
1
1
1
1
1
1
1
1
1
1
1
1
1
1
1
1
1
1
1
1
1
1
1
1
1
1
1
1
1
1
1
1
1
1
1
1
1
1
1
1
1
1
1
1
1
1
1
1
1
1
1
1
1
1
1
1
1
1
1
1
1
1
1
1
1
1
1
1
1
1
1
1
1
1
1
1
1
1
1
1
1
1
1
1
1
1
1
1
1
1
1
1
1
1
1
1
1
1
1
1
1
1
1
1
1
1
1
1
1
1
1
1
1
1
1
1
1
1
1
1
1
1
1
1
1
1
1
1
1
1
1
1
1
1
1
1
1
1
1
1
1
1
1
1
1
1
1
1
1
1
1
1
1
1
1
1
1
1
1
1
1
1
1
1
1
1
1
1
1
1
1
1
1
1
1
1
1
1
1
1
1
1
1
1
1
1
1
1
1
1
1
1
1
1
1
1
1
1
1
1
1
1
1
1
1
1
1
1
1
1
1
1
1
1
1
1
1
1
1
1
1
1
1
1
1
1
1
1
1
1
1
1
1
1
1
1
1
1
1
1
1
1
1
1
1
1
1
1
1
1
1
1
1
1
1
1
1
1
1
1
1
1
1
1
1
1
1
1
1
1
1
1
1
1
1
1
1
1
1
1
1
1
1
1
1
1
1
1
1
1
1
1
1
1

POINT_DATA 343
FIELD FieldData 8

NodeID_(#) 1 343 int
0
1
2
3
4
5
6
7
8
9
10
11
12
13
14
15
16
17
18
19
20
21
22
23
24
25
26
27
28
29
30
31
32
33
34
35
36
37
38
39
40
41
42
43
44
45
46
47
48
49
50
51
52
53
54
55
56
57
58
59
60
61
62
63
64
65
66
67
68
69
70
71
72
73
74
75
76
77
78
79
80
81
82
83
84
85
86
87
88
89
90
91
92
93
94
95
96
97
98
99
100
101
102
103
104
105
106
107
108
109
110
111
112
113
114
115
116
117
118
119
120
121
122
123
124
125
126
127
128
129
130
131
132
133
134
135
136
137
138
139
140
141
142
143
144
145
146
147
148
149
150
151
152
153
154
155
156
157
158
159
160
161
162
163
164
165
166
167
168
169
170
171
172
173
174
175
176
177
178
179
180
181
182
183
184
185
186
187
188
189
190
191
192
193
194
195
196
197
198
199
200
201
202
203
204
205
206
207
208
209
210
211
212
213
214
215
216
217
218
219
220
221
222
223
224
225
226
227
228
229
230
231
232
233
234
235
236
237
238
239
240
241
242
243
244
245
246
247
248
249
250
251
252
253
254
255
256
257
258
259
260
261
262
263
264
265
266
267
268
269
270
271
272
273
274
275
276
277
278
279
280
281
282
283
284
285
286
287
288
289
290
291
292
293
294
295
296
297
298
299
300
301
302
303
304
305
306
307
308
309
310
311
312
313
314
315
316
317
318
319
320
321
322
323
324
325
326
327
328
329
330
331
332
333
334
335
336
337
338
339
340
341
342

Component_(#) 1 343 int
0
0
0
0
0
0
0
0
0
0
0
0
0
0
0
0
0
0
0
0
0
0
0
0
0
0
0
0
0
0
0
0
0
0
0
0
0
0
0
0
0
0
0
0
0
0
0
0
0
0
0
0
0
0
0
0
0
0
0
0
0
0
0
0
0
0
0
0
0
0
0
0
0
0
0
0
0
0
0
0
0
0
0
0
0
0
0
0
0
0
0
0
0
0
0
0
0
0
0
0
0
0
0
0
0
0
0
0
0
0
0
0
0
0
0
0
0
0
0
0
0
0
0
0
0
0
0
0
0
0
0
0
0
0
0
0
0
0
0
0
0
0
0
0
0
0
0
0
0
0
0
0
0
0
0
0
0
0
0
0
0
0
0
0
0
0
0
0
0
0
0
0
0
0
0
0
0
0
0
0
0
0
0
0
0
0
0
0
0
0
0
0
0
0
0
0
0
0
0
0
0
0
0
0
0
0
0
0
0
0
0
0
0
0
0
0
0
0
0
0
0
0
0
0
0
0
0
0
0
0
0
0
0
0
0
0
0
0
0
0
0
0
0
0
0
0
0
0
0
0
0
0
0
0
0
0
0
0
0
0
0
0
0
0
0
0
0
0
0
0
0
0
0
0
0
0
0
0
0
0
0
0
0
0
0
0
0
0
0
0
0
0
0
0
0
0
0
0
0
0
0
0
0
0
0
0
0
0
0
0
0
0
0
0
0
0
0
0
0
0
0
0
0
0
0
0
0
0
0
0
0
0
0
0
0
0
0
0
0
0
0
0
0

NodalMass_(kg) 1 343 double
3.15563e-06
1.41304e-05
2.20912e-06
1.71484e-05
8.42e-06
9.09306e-06
9.93033e-06
7.52198e-06
6.81096e-06
5.58223e-06
3.10888e-06
1.07575e-05
4.87011e-06
1.64955e-05
3.0246e-06
8.05984e-06
6.703e-06
1.0877e-05
4.18978e-06
8.16106e-06
6.14143e-06
1.17902e-05
2.23114e-06
4.25176e-06
1.09915e-05
7.41467e-06
4.21871e-06
3.92484e-06
3.08766e-06
1.31268e-05
7.72627e-06
1.65404e-05
1.19037e-05
7.29666e-06
3.81683e-06
1.11001e-05
3.81317e-06
1.39137e-05
6.37414e-06
8.00975e-06
7.6712e-06
1.18847e-05
1.6399e-05
2.78633e-06
8.93599e-06
2.58087e-06
7.57362e-06
4.23241e-06
1.31286e-05
3.80168e-06
2.7746e-06
7.16776e-06
1.21307e-05
5.11765e-06
8.19728e-06
4.58094e-06
2.79503e-06
3.26126e-06
4.12443e-06
2.11915e-06
3.35177e-06
3.61669e-06
1.56838e-05
7.33679e-06
8.24695e-06
5.00369e-06
2.82625e-06
7.20276e-06
3.26815e-06
4.18751e-06
2.02785e-06
2.42152e-06
3.11835e-06
5.97459e-06
5.87101e-06
4.09374e-06
5.45463e-06
2.28825e-06
4.49759e-06
4.38192e-06
4.50892e-06
4.39234e-06
4.27273e-06
5.32031e-06
1.53201e-06
2.38869e-06
2.02885e-06
4.38798e-06
3.17972e-06
3.14298e-06
4.61567e-06
5.87645e-06
8.18088e-06
2.48341e-06
1.53815e-05
3.49683e-06
7.35227e-06
2.01314e-06
2.0408e-06
7.98183e-06
4.41293e-06
7.1389e-06
1.20123e-06
5.03343e-06
1.61257e-06
4.12601e-06
8.73748e-06
4.37849e-06
7.97173e-06
2.13557e-06
3.38137e-06
9.48623e-06
7.40262e-06
1.80226e-06
2.10222e-06
7.98889e-06
1.87983e-06
7.44814e-06
4.19782e-06
2.37156e-06
4.31705e-06
6.06441e-06
4.30905e-06
2.16843e-06
1.8986e-06
1.81294e-06
3.89762e-06
2.44299e-06
1.65628e-06
8.01374e-06
1.64513e-06
2.3931e-06
3.01363e-06
2.99431e-06
1.36541e-06
1.87293e-06
2.09622e-06
1.94762e-06
1.87618e-06
6.37913e-06
4.58628e-06
2.02767e-06
1.61999e-06
2.41284e-06
3.8865e-06
4.44973e-06
2.29839e-06
1.17349e-05
3.11811e-06
1.354e-06
3.45063e-06
1.81846e-06
2.9382e-06
1.37381e-06
2.41464e-06
2.10451e-06
2.63927e-06
2.14166e-06
1.7943e-06
3.19976e-06
1.36989e-06
2.43489e-06
2.08158e-06
1.3601e-06
2.17203e-06
1.89924e-06
3.16996e-06
2.6119e-06
2.37677e-06
1.60225e-06
1.90684e-06
5.49206e-06
1.87878e-06
3.14313e-06
2.97301e-06
1.18454e-06
1.89263e-06
2.04166e-06
2.73572e-06
2.42405e-06
3.23083e-06
3.19752e-06
3.2142e-06
1.94492e-06
1.61196e-06
1.86876e-06
3.22435e-06
2.1114e-06
2.96917e-06
6.15288e-06
2.3097e-06
2.39729e-06
2.38029e-06
2.64508e-06
1.66557e-06
1.82377e-06
2.06583e-06
5.73271e-06
2.08467e-06
2.18324e-06
2.43522e-06
3.1188e-06
3.17316e-06
2.05447e-06
1.9592e-06
3.05718e-06
6.44327e-06
2.08796e-06
2.72615e-06
2.15709e-06
1.86812e-06
2.0028e-06
2.10999e-06
2.88994e-06
2.3222e-06
2.3979e-06
1.97629e-06
6.4127e-06
2.16225e-06
3.29198e-06
2.10223e-06
2.66566e-06
1.94415e-06
2.91865e-06
2.58116e-06
2.11703e-06
2.09534e-06
1.91719e-06
7.06046e-06
2.25203e-06
2.06378e-06
6.28159e-06
2.12147e-06
2.90924e-06
2.12921e-06
6.4487e-06
1.41701e-06
2.0682e-06
6.58062e-06
2.52584e-06
2.39732e-06
7.42191e-07
2.22368e-06
7.06751e-07
7.00657e-07
8.93749e-07
2.53536e-06
2.26535e-06
1.33607e-06
7.84725e-07
2.32303e-06
6.06694e-07
6.68276e-07
6.84307e-07
2.51242e-06
2.31629e-06
7.8367e-07
6.80839e-07
6.22692e-06
6.7471e-07
6.65305e-07
7.01158e-07
1.8232e-06
1.90695e-06
6.86722e-07
7.04792e-07
1.86445e-06
2.28572e-06
6.8045e-07
7.16005e-07
1.82373e-06
6.01079e-07
2.02791e-06
7.4579e-07
5.74423e-07
1.80052e-06
1.454e-06
2.2702e-06
1.80636e-06
2.15356e-06
1.79089e-06
1.79456e-06
6.8231e-07
2.24737e-06
1.45239e-06
1.79556e-06
6.97875e-07
6.24265e-07
6.62717e-07
1.44627e-06
1.40138e-06
2.15258e-06
1.82851e-06
1.3994e-06
1.43932e-06
2.19226e-06
6.97732e-07
1.77726e-06
1.79162e-06
6.54258e-07
7.3397e-07
2.34895e-06
7.10392e-07
6.56982e-07
6.26314e-07
2.18926e-06
6.12493e-07
6.03901e-07
5.92831e-07
5.12031e-07
5.11667e-07
4.9467e-07
4.97016e-07
4.96269e-07
5.33079e-07
4.94191e-07
4.97855e-07
4.86862e-07
4.90626e-07
4.94649e-07
4.94954e-07
4.91922e-07
4.89615e-07
4.96354e-07
4.95189e-07
4.82188e-07
1.10854e-06
5.3299e-07
5.44763e-07
5.36655e-07
5.15417e-07
5.01772e-07
5.53774e-07
5.53774e-07
5.53774e-07
5.53774e-07
5.53774e-07
5.53774e-07
5.50785e-07
5.50785e-07
7.45291e-07
7.11668e-07
4.9897e-07

NodalForce_(N) 3 343 double
5.0432e-07 -4.55947e-08 1.2731e-08
3.81195e-06 -8.33959e-07 8.05893e-07
0.000206073 0.000347633 0.000430463
1.2699e-06 -8.52535e-07 7.22617e-07
-2.83869e-06 -3.71593e-06 3.99777e-06
-3.80813e-06 -3.78202e-06 4.80552e-06
7.04099e-07 -8.68858e-06 1.12744e-05
3.21719e-06 -4.44648e-06 5.4164e-06
-5.05789e-06 -5.04246e-06 6.61771e-06
5.15754e-07 -2.10255e-06 2.48218e-06
-4.03198e-06 -1.05502e-06 1.44976e-06
-1.12569e-05 -5.23117e-06 6.81368e-06
-5.60411e-06 -1.66816e-06 2.08112e-06
-4.99034e-06 -8.25822e-07 1.03777e-06
-3.44605e-06 -9.7929e-07 1.49126e-06
-1.13043e-06 -5.90776e-06 8.1177e-06
1.97798e-06 -4.20481e-06 5.30174e-06
-1.32991e-06 -7.54675e-07 8.2426e-07
-0.00117677 0.000632648 -3.36736e-05
2.42514e-07 -1.61381e-07 1.70528e-07
1.63136e-06 -4.52962e-06 5.37372e-06
-5.60918e-06 -1.11398e-05 1.38944e-05
-0.00046561 -0.00148106 -0.000776297
1.93698e-06 -1.39457e-06 1.42344e-06
2.39942e-06 -4.84457e-06 5.70736e-06
3.42273e-06 -1.83906e-06 2.51688e-06
-4.97199e-07 -2.11291e-08 1.26125e-07
-8.82551e-08 -1.16359e-06 1.44618e-06
2.39029e-06 -2.62908e-07 3.79323e-07
5.24411e-06 -3.45053e-07 6.9139e-07
6.21062e-06 -1.64111e-06 2.74269e-06
-2.17232e-06 -1.61635e-05 2.26163e-05
-9.83314e-06 -1.1369e-05 1.60692e-05
5.71842e-07 -7.63031e-06 1.02097e-05
4.63142e-06 -5.34521e-06 7.01567e-06
7.81167e-06 -9.74322e-06 1.23931e-05
5.59504e-06 -4.0941e-06 5.35989e-06
2.29663e-05 -1.32865e-05 1.69537e-05
-2.36134e-06 -1.25527e-06 1.49526e-06
-5.71318e-06 -2.4379e-06 3.85913e-06
-3.76339e-06 -2.05925e-06 1.92073e-06
-3.42721e-07 -4.83789e-06 6.78704e-06
9.21331e-08 -9.63706e-07 9.10276e-07
9.22168e-07 -3.18505e-07 3.51462e-07
3.54368e-06 -2.23298e-06 2.38893e-06
0.000804513 0.00061082 -0.000363084
1.08527e-06 -3.09531e-07 2.68943e-07
6.01483e-06 0.000948758 0.000135294
-1.4794e-06 -8.07286e-07 1.1254e-06
-7.35105e-07 -1.10051e-07 8.20138e-08
-2.22256e-06 -2.2117e-06 3.28313e-06
-4.00235e-06 -4.12185e-06 6.23935e-06
2.63651e-06 -4.09532e-07 6.64789e-07
5.25829e-07 -5.82497e-07 7.4976e-07
1.8983e-07 -2.48885e-07 3.09623e-07
-3.26356e-06 -6.46514e-06 9.03683e-06
0.000625261 0.000591722 0.000623634
1.09531e-06 -1.17934e-07 8.33893e-08
-0.000151035 -1.55656e-05 -0.000320183
-1.01982e-07 -2.97553e-06 4.11656e-06
-2.4023e-06 -4.62378e-07 7.38108e-07
-1.49031e-06 -5.14061e-06 6.61628e-06
5.72172e-06 -1.56677e-05 1.89293e-05
7.84965e-07 -7.74262e-06 9.86166e-06
-1.89728e-06 -2.04706e-06 1.78472e-06
1.01217e-06 -1.76406e-08 1.29947e-07
-1.71182e-06 -4.15368e-07 3.88983e-07
-6.43515e-06 -4.18258e-06 6.22731e-06
2.85783e-06 -4.55202e-06 5.99782e-06
-2.94674e-06 -4.56108e-06 5.82949e-06
1.1718e-06 -3.35257e-07 4.22403e-07
-2.0657e-06 -3.34745e-07 4.9717e-07
-7.34522e-07 -4.23941e-07 3.74874e-07
-2.43047e-06 -1.99649e-06 3.10535e-06
4.99498e-07 -8.45781e-07 8.89901e-07
0.00116293 0.000519732 0.000363064
7.06303e-07 -1.99546e-06 2.32936e-06
4.21073e-07 -4.3096e-08 4.49739e-08
-2.31732e-06 -2.5511e-06 3.73125e-06
7.20165e-07 -2.50783e-06 3.83535e-06
6.89654e-07 -1.30987e-06 2.008e-06
-1.50107e-06 -1.34264e-06 1.82803e-06
2.70629e-06 -6.00413e-06 8.08876e-06
2.26765e-06 -6.22069e-07 8.41093e-07
-3.08116e-05 -0.00101279 0.000309082
8.1855e-07 5.44951e-09 1.22181e-08
0.000104423 -0.000581371 0.000367563
-0.000386735 -0.00025899 8.37164e-05
-0.000221032 0.000219986 -0.000176707
1.78113e-06 -2.77877e-07 3.59766e-07
-8.02052e-07 -9.50342e-08 1.03735e-07
2.68217e-07 -2.36595e-06 3.1314e-06
-2.14315e-06 -1.32788e-06 2.51723e-06
-4.17423e-06 -1.95524e-06 2.77119e-06
-2.20913e-05 -1.55387e-05 2.07543e-05
-1.15584e-06 -2.66509e-06 3.18881e-06
-1.10391e-06 -4.44527e-06 4.97429e-06
3.02516e-07 -2.83969e-06 3.65193e-06
-6.4992e-05 5.99036e-05 -5.81151e-05
2.80287e-06 -5.16486e-06 6.52554e-06
2.63688e-06 -2.53354e-06 2.91692e-06
4.54713e-06 -4.14586e-06 5.2454e-06
5.91212e-07 -2.09702e-07 2.21399e-07
4.80014e-06 -5.44685e-06 7.29349e-06
4.77418e-07 -2.13882e-07 2.06216e-07
8.25325e-08 -2.38783e-06 3.00196e-06
9.59267e-06 -5.46023e-06 6.56103e-06
-5.28019e-06 -4.77364e-06 6.2622e-06
-6.92592e-06 -5.09189e-06 6.13909e-06
-5.40788e-07 -2.18713e-08 4.74946e-08
6.38644e-06 -2.5879e-06 3.40185e-06
1.12521e-05 -3.97972e-06 5.06487e-06
8.49208e-06 -3.88721e-06 5.32165e-06
-0.000539045 -0.000354214 -0.00063865
1.33555e-07 -2.97319e-06 3.76774e-06
-7.55993e-07 -2.88499e-07 3.94712e-07
3.02288e-06 -2.63162e-06 3.4318e-06
4.86086e-06 -7.83942e-06 1.00351e-05
7.95846e-06 -2.42545e-06 3.12437e-06
-3.33118e-06 -1.87267e-06 2.33273e-06
-3.96133e-06 -6.15179e-06 8.10737e-06
-3.15767e-06 -6.39617e-06 8.51066e-06
-8.30018e-07 -8.44883e-08 1.18515e-07
0.00031364 0.000287858 4.21634e-05
-4.42652e-07 -5.32336e-08 1.77804e-08
5.36741e-07 -2.52671e-06 3.42126e-06
7.59338e-06 -2.05438e-06 2.76279e-06
-0.000121344 -0.000696132 -0.000322499
-2.00644e-07 -5.7676e-08 5.47926e-08
6.29003e-06 -2.28694e-06 2.31823e-06
7.2222e-07 -1.80394e-06 2.5166e-06
3.2396e-07 -3.35408e-06 4.69068e-06
-5.14273e-06 -1.73973e-06 2.46286e-06
-4.27032e-06 -2.42472e-06 3.60215e-06
0.000274872 -0.00111019 -0.000155817
1.95081e-07 -2.15481e-10 3.50758e-08
7.63198e-05 -2.92183e-05 -0.000313352
-4.08646e-07 -2.13118e-06 2.66086e-06
2.39291e-06 -2.59223e-06 3.40322e-06
8.14511e-06 -6.73626e-06 8.55967e-06
-5.4561e-06 -4.94763e-06 7.10331e-06
-4.05453e-06 -1.85119e-06 2.56932e-06
-2.77727e-06 -1.80873e-06 2.40006e-06
-3.48037e-06 -3.45791e-06 4.65417e-06
-0.000961895 0.000261912 0.000162317
-7.40071e-06 -2.73883e-06 3.62382e-06
-8.04031e-07 -7.35655e-07 7.14573e-07
1.0942e-05 -1.11553e-05 1.39043e-05
2.20623e-06 -4.39918e-06 5.58334e-06
6.79797e-07 -4.09357e-07 4.781e-07
2.64144e-06 -4.21407e-07 4.51043e-07
-7.19749e-08 -3.31518e-09 2.08105e-08
-0.000150055 -0.000607077 -0.000132119
-3.05873e-07 -1.93364e-06 2.62843e-06
3.96696e-06 -1.84401e-06 2.26827e-06
-1.10067e-06 -1.90542e-06 2.71137e-06
0.000526086 -0.000713824 0.000258423
-0.00150204 0.000114461 0.000425186
-1.91156e-06 -1.30295e-06 1.99401e-06
-2.92953e-06 -4.51538e-06 6.13701e-06
-1.22779e-06 -4.6693e-07 4.53938e-07
2.56653e-07 -2.19089e-07 3.51036e-07
1.45997e-06 -1.84483e-06 2.21386e-06
-1.0736e-06 -7.03536e-07 1.1404e-06
-9.18766e-07 -3.0569e-06 4.29492e-06
-1.56375e-06 -2.11721e-06 3.01317e-06
3.13317e-06 -2.36425e-06 2.9702e-06
2.31288e-06 -3.47671e-07 5.99739e-07
5.34851e-06 -2.03508e-06 2.69356e-06
3.44712e-06 -1.38985e-06 1.81347e-06
3.08692e-06 -9.71769e-07 1.33571e-06
5.21571e-06 -4.04281e-06 5.10632e-06
1.85414e-07 -1.64304e-06 2.02857e-06
-1.76581e-06 -4.09884e-07 7.39392e-07
-2.32725e-06 -8.0056e-07 1.53027e-06
-1.14113e-06 -3.49295e-07 6.17318e-07
2.12787e-07 -1.66229e-06 2.42389e-06
-1.4005e-06 -3.00014e-07 2.52657e-07
2.16151e-06 -3.85482e-06 4.9572e-06
0.000236503 -0.000776214 -0.00067056
-3.79625e-06 -4.54383e-06 6.36129e-06
4.36037e-06 -3.44265e-06 4.29331e-06
2.08951e-06 -4.5514e-06 5.65891e-06
0.000296268 -0.000758155 0.000358318
-3.75435e-07 -2.0535e-07 2.859e-07
-3.58199e-06 -1.71996e-06 2.28694e-06
-6.11562e-06 -3.5381e-06 4.95196e-06
-3.32385e-06 -2.44805e-06 3.47075e-06
2.2596e-06 -1.57339e-06 1.86807e-06
3.17218e-06 -2.61898e-06 3.02546e-06
2.69245e-06 -1.21944e-06 1.3678e-06
1.37506e-06 -1.8302e-06 2.41198e-06
-1.02036e-06 -2.30842e-07 6.21564e-07
2.35397e-06 -6.61721e-07 1.0034e-06
-5.79904e-07 -2.68498e-07 2.12394e-07
-9.9196e-07 -3.33495e-07 2.89943e-07
2.26472e-06 -2.90535e-06 3.64316e-06
5.57311e-06 -1.23492e-06 1.69011e-06
4.68447e-07 -2.93516e-06 3.8393e-06
3.36325e-06 -1.4645e-06 1.941e-06
4.77899e-06 -2.62542e-06 3.42037e-06
0.000156225 -0.000279547 0.000277206
6.89485e-07 -4.06317e-08 7.05718e-08
-5.32443e-05 0.000460716 3.77458e-05
2.95646e-06 -5.77039e-07 7.93967e-07
4.21697e-06 -9.6721e-07 1.15129e-06
3.8836e-06 -2.30022e-06 3.14137e-06
2.7902e-06 -1.67129e-06 2.12092e-06
-1.4901e-06 -1.48358e-06 1.58083e-06
-2.07101e-06 -1.19596e-06 1.3082e-06
5.4904e-07 -2.42893e-08 1.16877e-08
2.04613e-06 -2.19382e-06 2.69493e-06
-1.4212e-06 -2.96891e-06 4.07469e-06
3.26237e-06 -2.27857e-06 2.88882e-06
-3.17787e-06 -1.24947e-06 1.90168e-06
-9.29951e-08 -2.13258e-07 2.49273e-07
-3.04266e-06 -2.83102e-06 3.8872e-06
3.81631e-07 -4.78022e-07 6.15722e-07
2.40024e-06 -1.14194e-06 1.55039e-06
5.74567e-06 -3.32725e-06 4.33203e-06
9.53798e-07 -1.03315e-06 1.37544e-06
-7.78574e-07 -3.75236e-06 5.0373e-06
2.8526e-06 -9.45446e-07 1.08387e-06
-2.5407e-06 -2.32087e-06 2.87097e-06
1.58652e-06 -3.10265e-07 2.95737e-07
-0.000698882 -0.000116413 0.000149747
-1.21864e-06 -6.67208e-07 1.12935e-06
-2.39249e-06 -1.00599e-06 1.1762e-06
1.88474e-06 -1.25107e-06 1.41388e-06
1.8461e-06 -7.01538e-07 7.15433e-07
-1.27981e-06 -6.92362e-07 6.1049e-07
-2.25884e-07 -1.13244e-06 1.46523e-06
0.000663152 -0.000777014 -1.08454e-05
-7.77067e-05 -3.21118e-05 0.000229257
2.66117e-06 -7.22227e-07 1.16917e-06
4.00749e-06 -2.37395e-06 2.85811e-06
-3.41477e-07 -7.05363e-07 7.97955e-07
5.90946e-07 -2.91436e-06 3.85652e-06
1.77041e-06 -1.16515e-06 1.35228e-06
-2.72449e-06 -1.26603e-06 2.10258e-06
3.16558e-06 -3.36617e-06 4.2604e-06
0.000272321 1.2075e-05 0.00020797
4.75801e-06 -2.40005e-06 3.11059e-06
1.50713e-07 -1.70644e-07 1.80495e-07
0.00056474 -0.000482 -8.6034e-06
-2.11602e-07 -3.88048e-07 5.93088e-07
0.000897976 -0.000296175 -0.00019987
3.98626e-06 -3.12184e-06 4.04776e-06
2.62722e-06 -1.86103e-06 2.39214e-06
0.00012895 -0.000316257 -1.07118e-05
1.75794e-06 -9.34102e-07 1.19488e-06
-0.000289759 -0.000314515 -0.000280865
-3.09562e-07 -9.29845e-07 1.20691e-06
4.66532e-07 -9.46438e-07 1.31972e-06
3.226e-06 -6.32958e-07 1.00066e-06
-8.27808e-07 -3.25435e-06 4.31898e-06
2.60091e-07 -3.53595e-07 4.07189e-07
-0.000715354 -0.000793686 -8.81846e-05
-6.72809e-07 -1.32319e-06 1.40954e-06
-1.14814e-06 -3.0685e-07 4.41442e-07
-9.7942e-07 -9.26545e-07 1.25845e-06
-0.000587786 -0.000543744 -3.76926e-05
4.25395e-06 -2.0221e-06 2.67568e-06
3.9758e-06 -2.64241e-06 3.43282e-06
-6.62909e-07 -9.52167e-07 1.27231e-06
1.11803e-06 -9.78512e-07 1.2508e-06
1.68594e-07 -7.03825e-08 1.62863e-08
0.000245695 0.000661402 -0.00022716
-5.76068e-05 8.81417e-05 3.62953e-05
0.000120778 -0.000233307 -1.90884e-05
4.39116e-06 -2.02046e-06 2.66153e-06
1.02531e-06 -8.21699e-07 1.10328e-06
2.2092e-06 -6.39534e-07 6.01743e-07
-7.76032e-07 -1.04828e-06 1.49988e-06
-3.99259e-05 -0.000134329 4.25995e-05
0.000146465 0.000618498 0.000157262
-3.62453e-07 -5.29483e-08 3.6846e-08
-5.43918e-07 -5.58169e-08 5.1666e-08
1.02311e-07 -2.07162e-06 2.98722e-06
-1.31204e-07 -7.06085e-08 5.55175e-08