# vtk DataFile Version 4.2
vtk output
ASCII
DATASET UNSTRUCTURED_GRID

POINTS 343 double
0.00122129 0.00419906 -3.52885e-06
0.00236107 0.00499099 0.0021679
0 0.00419538 0.00112517
0.00210372 0.00196232 0.00193553
0.00564877 0.00244092 0.00501226
0.00564417 0.00386024 0.00637642
0.00831784 0.00483031 0.0049672
0.00678544 0.00489001 0.00366838
0.00747035 0.00333774 0.00688364
0.00543749 0.00501974 0.00498085
0.00457782 0.00114567 0.00998131
0.00577628 0.0021162 0.00788149
0.0045933 2.20516e-05 0.00830033
0.00219567 0.00201035 0.00802618
0.00468619 0.00255809 0.00998068
0.00757871 0.00649076 0.00691601
0.00698464 0.00622159 0.00515739
0.0024654 0.00219411 0.00513832
0 0.00143586 0.00417514
0.0017366 0.00347193 0.00403191
0.0074682 0.00324433 0.00313571
0.00847289 0.00227612 0.00503134
0 0.00270918 0.00154168
0.00454494 0.00145704 -1.35841e-05
0.00547155 0.00222196 0.00217943
0.0043193 0.00354766 0.00158907
0.00147015 4.64406e-06 0.00405538
0.00458113 2.24198e-05 0.00167278
0.00285311 0.00696258 -8.27698e-06
0.00210392 0.00805994 0.00193823
0.00444496 0.00626712 0.00163077
0.00871404 0.00803949 0.00795896
0.00869706 0.00487331 0.00798403
0.00914872 0.0061402 0.00591108
0.0108956 0.00890151 0.00414977
0.00824565 0.0076855 0.00493269
0.00931316 0.0100387 0.00413201
0.0086781 0.00802526 0.00198677
0.00385851 0.00305412 0.00694639
0.00484389 0.00368558 0.00830531
0.00425527 0.0016243 0.00595439
0.00544328 0.00769507 0.00765563
0.00216213 0.00801554 0.00798311
0.00306578 0.0100098 0.00711767
0.00425264 0.00841881 0.00594358
0 0.00695361 0.00262895
0.00179002 0.0062455 0.00408238
0 0.0040177 0.00850214
0.00251974 0.00499463 0.00765362
0.00156122 0.00417971 0.0099953
0.00781911 0.00716365 0.00996281
0.00666804 0.00600685 0.00838943
0.00222889 0.00794907 0.00473499
0.00330946 0.00695546 0.0064573
0.00172606 0.00608416 0.0059207
0.0109143 0.00586337 0.00826495
0 0.00718191 0.00711644
0.00172204 0.00577956 -4.99097e-06
0 0.00577432 0.00158701
0.0109067 0.00723445 0.00706595
0.00312976 0.00336229 0.00998804
0.0109252 0.0015022 0.00413128
0.00879142 0.00201097 0.00194875
0.00916803 0.00356886 0.003964
0.00407178 0.00167064 0.00411455
0.00163692 0.0100047 0.00581015
0.00307848 1.29911e-05 0.00711768
0.00667089 0.00420994 0.00834814
0.0109006 0.00732575 0.00415173
0.00935172 5.78107e-05 0.00413166
0.00364333 0.00288684 -1.05629e-05
0.00295344 0.00155274 0.0099888
0.00308629 1.35572e-05 0.00282205
0.0052297 0.00521922 0.00753407
0.00344263 0.0031609 0.00315606
0 0.00849157 0.00581511
0.00530642 0.00369772 0.00376802
0.00167388 0.00271408 -4.77293e-06
0.00631099 0.00834962 0.00997117
0.00650069 0.0100243 0.00847709
0.00457449 0.010016 0.00829978
0.00436912 0.00851917 0.00998211
0.0108997 0.00854261 0.00576766
0.00342092 0.0068469 0.00313959
0 0.00748929 0.00137438
0.00149088 0.0074936 -4.28841e-06
0 0.00287343 0.00335182
0 0.00580816 0.00831736
0 0.00429792 0.00253898
0.00275668 0.00430681 -7.87095e-06
0.00156069 0.00582423 0.00999523
0.00563265 0.00649635 0.00637919
0.0039223 0.00652483 0.00821958
0.00758726 0.00266512 0.00996453
0.00875902 0.00200622 0.00799567
0.00760827 4.35804e-05 0.00305489
0.00656363 0.0016976 0.0035896
0.0109176 0.00293607 0.00330977
0 0.00140616 0.00256446
0.00693025 0.00825533 0.00639345
0.00634087 0.00146827 -1.95161e-05
0.00657304 0.00358211 0.00158152
0.00342315 0.0100115 0.00581367
0.00931024 0.0100386 0.00579435
0.00278895 0.00141744 -7.98102e-06
0.00651982 3.58874e-05 0.00147228
0.00682517 0.00831487 0.00359317
0.00934852 5.74231e-05 0.00579385
0.00676984 0.00170691 0.00633852
0.00152948 0.00256876 0.00999536
0.00773682 0.007214 -2.44528e-05
0.00561097 0.00771096 0.00215059
0.00646099 0.00611855 0.00158082
0 0.00686719 0.00578184
0.0109234 0.00147308 0.00252363
0.00193063 0.0036165 0.0064018
0.0108947 0.00853821 0.00258296
0.00916182 0.00623186 0.00409756
0.00648999 0.0100247 0.00147303
0.00761327 4.36323e-05 0.00689453
0.0109282 0.00150138 0.00577177
0.00915999 0.00362055 0.0060219
0.00164119 5.30439e-06 0.00581022
0 0.0013659 0.00748679
0.00149026 4.94238e-06 0.0075247
0.0109048 0.00691977 0.00573482
0.00631453 0.00851578 -1.91172e-05
0 0.0075208 0.00859127
0.00148477 0.00749123 0.00999537
0.00459313 0.00822193 0.00361317
0.0093498 0.0100391 0.00746933
0.0109029 0.00868078 0.00747521
0.00630393 0.00161779 0.00997161
0.00791855 0.00422441 0.00996249
0 0.0057735 0.00666667
0.00148678 0.0100043 0.00752439
0 0.00863025 0.00752641
0.00937901 5.86183e-05 0.00247323
0.0108997 0.00700576 0.00258811
0.00921004 0.00638464 0.00213078
0.00928002 0.00586701 0.00995414
0.00818195 0.00141873 0.00996099
0.00938838 5.79469e-05 0.0074698
0.0109323 0.00143205 0.00743551
0 0.00143551 0.00581971
0.00652892 3.52003e-05 0.00847791
0.00459384 2.28899e-05 0.00338452
0.00864132 0.00474932 0.00200492
0.0109105 0.00435738 0.00249904
0.00458974 0.0100161 0.00664992
0.00307287 0.0100099 0.00282217
0.00142773 4.62488e-06 0.00241373
0 0.00727418 0.00419576
0.0109111 0.00582936 0.00661734
0.00757582 0.01003 0.00305515
0.00817452 0.00867096 0.00996049
0 0.00574334 0.00336387
0 0.0043297 0.00416652
0.00748686 0.00581551 0.00996447
0.0109233 0.00308432 0.00686507
0.00460993 2.26882e-05 0.00664989
0.00269057 0.0100084 0.00860219
0.00816349 0.00141175 -2.6239e-05
0.00628817 0.00669067 0.00997144
0.0109088 0.007573 0.0085385
0.0093823 0.00759509 0.00995333
0.00753181 0.00305999 -2.40858e-05
0.00365241 0.00575501 -1.0859e-05
0.00818055 0.00866416 -2.61331e-05
0.00816611 0.0100331 0.00136
0.00628189 0.00689145 -1.91537e-05
0.00758733 0.00640231 0.00300672
0.00820071 4.90773e-05 0.00135957
0.00313974 0.00500914 0.00998798
0.0047157 0.00584972 0.00998002
0.00471768 0.00418371 0.00998006
0.00817728 0.0100332 0.00857744
0.0027008 1.1519e-05 0.00860254
0.0109051 0.00580003 0.003322
0 0.00302218 0.00691532
0.0109223 0.00407726 0.00844945
0.00926438 0.00406605 -2.96958e-05
0.0109162 0.00277248 0.00150331
0 0.00244495 0.00857025
0.00265923 0.00857905 0.00999007
0.00821232 4.83636e-05 0.00857829
0.0092699 0.00267359 0.00995447
0.00966258 0.00424319 0.00995199
0.00615963 0.0100231 0.00580971
0.0056359 0.0076044 0.00501206
0.00612693 0.010023 0.00419357
0.0075802 0.0100299 0.00689447
0.00328877 0.00692536 0.00998723
0.00452774 0.00434612 -1.37281e-05
0.00308929 1.34607e-05 0.00439436
0.00343726 1.52283e-05 0.0058137
0.0109097 0.0042554 0.00108749
0.00394815 0.00835129 0.00157559
0.0109122 0.00438858 0.00412214
0.00725018 0.00580438 -2.27402e-05
0.00934019 0.010039 0.00247361
0 0.00848692 0.00262374
0.0014667 0.0100044 0.00405551
0 0.00885053 0.00419359
0.00455053 0.00886695 -1.37166e-05
0.00456039 0.0100164 0.0016732
0.00543549 0.00481182 0.00236109
0.00785847 0.00455866 -2.50105e-05
0.00615382 3.31297e-05 0.00419361
0.00618628 3.3125e-05 0.00580997
0.0014243 0.0100042 0.0024138
0.00934539 0.00249706 -3.00308e-05
0.0109175 0.00458006 0.0071687
0.00773329 0.0100305 0.00497042
0.00626371 0.00339087 0.00997199
0.00267733 1.15495e-05 0.00134813
0.0109298 0.00250857 0.00851723
0.00260321 0.00479946 0.00499159
0.00634593 0.0043575 -1.98263e-05
0.00905445 0.00585062 -2.91547e-05
0.0059537 0.010022 0.00719648
0.0109154 0.00438891 0.0057856
0.00586406 0.0100219 0.00275623
0.00776646 4.48084e-05 0.00497054
0.00307653 0.0100099 0.00439463
0 0.00452174 0.00721958
0.00492127 0.00723715 0.00997897
0.00597942 3.14138e-05 0.00719672
0.00391603 0.00508701 0.00358369
0.00461396 0.0100162 0.00499226
0.00463513 2.32631e-05 0.00499216
0.00399191 0.00523019 0.00616106
0 0.005744 0.00499998
0 0.00433013 0.00583333
0.00543289 0.00576376 -1.66797e-05
0.00541745 0.0063587 0.00353533
0.00589079 3.14066e-05 0.00275564
0.0109077 0.00580081 0.00495402
0.00401051 0.00642097 0.00483073
0.0062597 0.00502468 0.00997183
0.0109032 0.00583088 0.0015489
0 0.00666667 0
0.00934893 0.00756287 -3.00694e-05
0.00363056 1.82549e-05 -1.17527e-05
0 0.01 0.00666667
0.00543986 0.0100198 0.00997588
0 0.00288419 0.00499914
0.0108967 0.00754073 0.00133667
0.0108988 0.00672088 -3.63873e-05
0 0.005 0.01
0.00544001 0.00290816 -1.65734e-05
0 0.005 0
0.0109323 7.26941e-05 0.00329105
0.0108981 0.0100475 0.00661716
0.0045551 0.0072899 -1.36964e-05
0.0109202 0.00294707 0.00495314
0.00545027 2.9978e-05 -1.77838e-05
0 0 0.00666667
0.00413255 0.00363136 0.00521242
0.00546205 2.85651e-05 0.00997708
0.0109382 7.20352e-05 0.00661696
0 0 0.005
0.00954894 0.0100401 0.00118784
0.0108924 0.00883057 0.00118246
0.010935 7.22648e-05 0.00495386
0.0109059 0.00505826 -3.60807e-05
0.00132528 0.00122453 -3.77349e-06
0 0.00122008 0.00122008
0 0.00333333 0.01
0 0.00666667 0.01
0.00955223 0.00882172 -3.06896e-05
0.010892 0.0100477 0.00329099
0.0045724 0.0100162 0.00338478
0.0109162 0.00672011 0.00994355
0 0.00333333 0
0 0.00122008 0.00877992
0.00132811 4.73576e-06 0.0087761
0.00132733 0.00122414 0.00999593
0.00956171 0.0100405 0.00873327
0.00132592 0.00878401 0.0099959
0 0.00877992 0.00877992
0.0109049 0.00883028 0.00872649
0.00723972 0.0100283 -2.27176e-05
0.0109228 0.00128821 0.00118191
0.00132505 0.0100039 0.00877546
0.00956771 0.00882182 0.00995191
0.0109228 0.00505711 0.00994365
0 0 0.00333333
0.00727223 4.29637e-05 -2.42522e-05
0.00958805 6.09562e-05 0.00118721
0.00131746 4.68864e-06 0.00120728
0 0.00877992 0.00122008
0.00132322 0.00878384 -3.87938e-06
0.00131395 0.010004 0.00120768
0.0109359 0.00128683 0.0087265
0.00959804 0.00127615 0.00995253
0.00728675 4.13279e-05 0.00996691
0.00958114 0.00127791 -3.10916e-05
0.00960077 5.97385e-05 0.00873406
0.0109127 0.00339539 -3.6025e-05
0.00362462 0.0100126 0.00998525
0.0026659 0.0100085 0.00134813
0.00725561 0.0100284 0.00996548
0.0109299 0.00339467 0.009944
0 0.01 0.005
0.00284597 0.00849602 -8.42584e-06
0.0108948 0.0100475 0.00495462
0 0.01 0.00333333
0 0.00166667 0
0.0109301 7.29029e-05 0.00162736
0 0.00166667 0.01
0 0.00833333 0
0.0108935 0.00838421 -3.54033e-05
0.0109416 7.17699e-05 0.00828072
0.0108899 0.010048 0.00162799
0.0109015 0.0100478 0.00828036
0.00181095 0.0100057 0.00999365
0 0.01 0.00833333
0.00905964 0.0100373 -2.94989e-05
0.00909742 5.77684e-05 -3.02891e-05
0.00911383 5.59586e-05 0.009956
0.00907598 0.0100382 0.00995478
0 0 0.00833333
0.0109099 0.00838452 0.00994359
0.00181378 7.97446e-06 -5.64595e-06
0 0 0.00166667
0.00361442 0.0100124 -1.08739e-05
0.0109374 0.00173213 0.00994409
0.0109203 0.00173367 -3.62151e-05
0.0018165 7.26029e-06 0.00999391
0.00180678 0.0100056 -5.46021e-06
0 0.01 0.00166667
0.0109045 0.0100482 0.00994369
0 0 0.01
0.0108883 0.0100482 -3.55961e-05
0.0109449 7.12585e-05 0.00994474
0 0.01 0.01
0.0109281 7.35499e-05 -3.69542e-05
0 0.01 0
0 0 0
0.00542548 0.0100201 -1.64408e-05
0.00363879 1.65658e-05 0.00998605
0 0.00833333 0.01

CELLS 343 686
1 0
1 1
1 2
1 3
1 4
1 5
1 6
1 7
1 8
1 9
1 10
1 11
1 12
1 13
1 14
1 15
1 16
1 17
1 18
1 19
1 20
1 21
1 22
1 23
1 24
1 25
1 26
1 27
1 28
1 29
1 30
1 31
1 32
1 33
1 34
1 35
1 36
1 37
1 38
1 39
1 40
1 41
1 42
1 43
1 44
1 45
1 46
1 47
1 48
1 49
1 50
1 51
1 52
1 53
1 54
1 55
1 56
1 57
1 58
1 59
1 60
1 61
1 62
1 63
1 64
1 65
1 66
1 67
1 68
1 69
1 70
1 71
1 72
1 73
1 74
1 75
1 76
1 77
1 78
1 79
1 80
1 81
1 82
1 83
1 84
1 85
1 86
1 87
1 88
1 89
1 90
1 91
1 92
1 93
1 94
1 95
1 96
1 97
1 98
1 99
1 100
1 101
1 102
1 103
1 104
1 105
1 106
1 107
1 108
1 109
1 110
1 111
1 112
1 113
1 114
1 115
1 116
1 117
1 118
1 119
1 120
1 121
1 122
1 123
1 124
1 125
1 126
1 127
1 128
1 129
1 130
1 131
1 132
1 133
1 134
1 135
1 136
1 137
1 138
1 139
1 140
1 141
1 142
1 143
1 144
1 145
1 146
1 147
1 148
1 149
1 150
1 151
1 152
1 153
1 154
1 155
1 156
1 157
1 158
1 159
1 160
1 161
1 162
1 163
1 164
1 165
1 166
1 167
1 168
1 169
1 170
1 171
1 172
1 173
1 174
1 175
1 176
1 177
1 178
1 179
1 180
1 181
1 182
1 183
1 184
1 185
1 186
1 187
1 188
1 189
1 190
1 191
1 192
1 193
1 194
1 195
1 196
1 197
1 198
1 199
1 200
1 201
1 202
1 203
1 204
1 205
1 206
1 207
1 208
1 209
1 210
1 211
1 212
1 213
1 214
1 215
1 216
1 217
1 218
1 219
1 220
1 221
1 222
1 223
1 224
1 225
1 226
1 227
1 228
1 229
1 230
1 231
1 232
1 233
1 234
1 235
1 236
1 237
1 238
1 239
1 240
1 241
1 242
1 243
1 244
1 245
1 246
1 247
1 248
1 249
1 250
1 251
1 252
1 253
1 254
1 255
1 256
1 257
1 258
1 259
1 260
1 261
1 262
1 263
1 264
1 265
1 266
1 267
1 268
1 269
1 270
1 271
1 272
1 273
1 274
1 275
1 276
1 277
1 278
1 279
1 280
1 281
1 282
1 283
1 284
1 285
1 286
1 287
1 288
1 289
1 290
1 291
1 292
1 293
1 294
1 295
1 296
1 297
1 298
1 299
1 300
1 301
1 302
1 303
1 304
1 305
1 306
1 307
1 308
1 309
1 310
1 311
1 312
1 313
1 314
1 315
1 316
1 317
1 318
1 319
1 320
1 321
1 322
1 323
1 324
1 325
1 326
1 327
1 328
1 329
1 330
1 331
1 332
1 333
1 334
1 335
1 336
1 337
1 338
1 339
1 340
1 341
1 342

CELL_TYPES 343
1
1
1
1
1
1
1
1
1
1
1
1
1
1
1
1
1
1
1
1
1
1
1
1
1
1
1
1
1
1
1
1
1
1
1
1
1
1
1
1
1
1
1
1
1
1
1
1
1
1
1
1
1
1
1
1
1
1
1
1
1
1
1
1
1
1
1
1
1
1
1
1
1
1
1
1
1
1
1
1
1
1
1
1
1
1
1
1
1
1
1
1
1
1
1
1
1
1
1
1
1
1
1
1
1
1
1
1
1
1
1
1
1
1
1
1
1
1
1
1
1
1
1
1
1
1
1
1
1
1
1
1
1
1
1
1
1
1
1
1
1
1
1
1
1
1
1
1
1
1
1
1
1
1
1
1
1
1
1
1
1
1
1
1
1
1
1
1
1
1
1
1
1
1
1
1
1
1
1
1
1
1
1
1
1
1
1
1
1
1
1
1
1
1
1
1
1
1
1
1
1
1
1
1
1
1
1
1
1
1
1
1
1
1
1
1
1
1
1
1
1
1
1
1
1
1
1
1
1
1
1
1
1
1
1
1
1
1
1
1
1
1
1
1
1
1
1
1
1
1
1
1
1
1
1
1
1
1
1
1
1
1
1
1
1
1
1
1
1
1
1
1
1
1
1
1
1
1
1
1
1
1
1
1
1
1
1
1
1
1
1
1
1
1
1
1
1
1
1
1
1
1
1
1
1
1
1
1
1
1
1
1
1
1
1
1
1
1
1
1
1
1
1
1
1
1
1
1
1
1
1
1
1
1
1
1
1
1
1
1
1
1
1

POINT_DATA 343
FIELD FieldData 8

NodeID_(#) 1 343 int
0
1
2
3
4
5
6
7
8
9
10
11
12
13
14
15
16
17
18
19
20
21
22
23
24
25
26
27
28
29
30
31
32
33
34
35
36
37
38
39
40
41
42
43
44
45
46
47
48
49
50
51
52
53
54
55
56
57
58
59
60
61
62
63
64
65
66
67
68
69
70
71
72
73
74
75
76
77
78
79
80
81
82
83
84
85
86
87
88
89
90
91
92
93
94
95
96
97
98
99
100
101
102
103
104
105
106
107
108
109
110
111
112
113
114
115
116
117
118
119
120
121
122
123
124
125
126
127
128
129
130
131
132
133
134
135
136
137
138
139
140
141
142
143
144
145
146
147
148
149
150
151
152
153
154
155
156
157
158
159
160
161
162
163
164
165
166
167
168
169
170
171
172
173
174
175
176
177
178
179
180
181
182
183
184
185
186
187
188
189
190
191
192
193
194
195
196
197
198
199
200
201
202
203
204
205
206
207
208
209
210
211
212
213
214
215
216
217
218
219
220
221
222
223
224
225
226
227
228
229
230
231
232
233
234
235
236
237
238
239
240
241
242
243
244
245
246
247
248
249
250
251
252
253
254
255
256
257
258
259
260
261
262
263
264
265
266
267
268
269
270
271
272
273
274
275
276
277
278
279
280
281
282
283
284
285
286
287
288
289
290
291
292
293
294
295
296
297
298
299
300
301
302
303
304
305
306
307
308
309
310
311
312
313
314
315
316
317
318
319
320
321
322
323
324
325
326
327
328
329
330
331
332
333
334
335
336
337
338
339
340
341
342

Component_(#) 1 343 int
0
0
0
0
0
0
0
0
0
0
0
0
0
0
0
0
0
0
0
0
0
0
0
0
0
0
0
0
0
0
0
0
0
0
0
0
0
0
0
0
0
0
0
0
0
0
0
0
0
0
0
0
0
0
0
0
0
0
0
0
0
0
0
0
0
0
0
0
0
0
0
0
0
0
0
0
0
0
0
0
0
0
0
0
0
0
0
0
0
0
0
0
0
0
0
0
0
0
0
0
0
0
0
0
0
0
0
0
0
0
0
0
0
0
0
0
0
0
0
0
0
0
0
0
0
0
0
0
0
0
0
0
0
0
0
0
0
0
0
0
0
0
0
0
0
0
0
0
0
0
0
0
0
0
0
0
0
0
0
0
0
0
0
0
0
0
0
0
0
0
0
0
0
0
0
0
0
0
0
0
0
0
0
0
0
0
0
0
0
0
0
0
0
0
0
0
0
0
0
0
0
0
0
0
0
0
0
0
0
0
0
0
0
0
0
0
0
0
0
0
0
0
0
0
0
0
0
0
0
0
0
0
0
0
0
0
0
0
0
0
0
0
0
0
0
0
0
0
0
0
0
0
0
0
0
0
0
0
0
0
0
0
0
0
0
0
0
0
0
0
0
0
0
0
0
0
0
0
0
0
0
0
0
0
0
0
0
0
0
0
0
0
0
0
0
0
0
0
0
0
0
0
0
0
0
0
0
0
0
0
0
0
0
0
0
0
0
0
0
0
0
0
0
0
0
0
0
0
0
0
0
0
0
0
0
0
0
0
0
0
0
0
0

NodalMass_(kg) 1 343 double
3.15563e-06
1.41304e-05
2.20912e-06
1.71484e-05
8.42e-06
9.09306e-06
9.93033e-06
7.52198e-06
6.81096e-06
5.58223e-06
3.10888e-06
1.07575e-05
4.87011e-06
1.64955e-05
3.0246e-06
8.05984e-06
6.703e-06
1.0877e-05
4.18978e-06
8.16106e-06
6.14143e-06
1.17902e-05
2.23114e-06
4.25176e-06
1.09915e-05
7.41467e-06
4.21871e-06
3.92484e-06
3.08766e-06
1.31268e-05
7.72627e-06
1.65404e-05
1.19037e-05
7.29666e-06
3.81683e-06
1.11001e-05
3.81317e-06
1.39137e-05
6.37414e-06
8.00975e-06
7.6712e-06
1.18847e-05
1.6399e-05
2.78633e-06
8.93599e-06
2.58087e-06
7.57362e-06
4.23241e-06
1.31286e-05
3.80168e-06
2.7746e-06
7.16776e-06
1.21307e-05
5.11765e-06
8.19728e-06
4.58094e-06
2.79503e-06
3.26126e-06
4.12443e-06
2.11915e-06
3.35177e-06
3.61669e-06
1.56838e-05
7.33679e-06
8.24695e-06
5.00369e-06
2.82625e-06
7.20276e-06
3.26815e-06
4.18751e-06
2.02785e-06
2.42152e-06
3.11835e-06
5.97459e-06
5.87101e-06
4.09374e-06
5.45463e-06
2.28825e-06
4.49759e-06
4.38192e-06
4.50892e-06
4.39234e-06
4.27273e-06
5.32031e-06
1.53201e-06
2.38869e-06
2.02885e-06
4.38798e-06
3.17972e-06
3.14298e-06
4.61567e-06
5.87645e-06
8.18088e-06
2.48341e-06
1.53815e-05
3.49683e-06
7.35227e-06
2.01314e-06
2.0408e-06
7.98183e-06
4.41293e-06
7.1389e-06
1.20123e-06
5.03343e-06
1.61257e-06
4.12601e-06
8.73748e-06
4.37849e-06
7.97173e-06
2.13557e-06
3.38137e-06
9.48623e-06
7.40262e-06
1.80226e-06
2.10222e-06
7.98889e-06
1.87983e-06
7.44814e-06
4.19782e-06
2.37156e-06
4.31705e-06
6.06441e-06
4.30905e-06
2.16843e-06
1.8986e-06
1.81294e-06
3.89762e-06
2.44299e-06
1.65628e-06
8.01374e-06
1.64513e-06
2.3931e-06
3.01363e-06
2.99431e-06
1.36541e-06
1.87293e-06
2.09622e-06
1.94762e-06
1.87618e-06
6.37913e-06
4.58628e-06
2.02767e-06
1.61999e-06
2.41284e-06
3.8865e-06
4.44973e-06
2.29839e-06
1.17349e-05
3.11811e-06
1.354e-06
3.45063e-06
1.81846e-06
2.9382e-06
1.37381e-06
2.41464e-06
2.10451e-06
2.63927e-06
2.14166e-06
1.7943e-06
3.19976e-06
1.36989e-06
2.43489e-06
2.08158e-06
1.3601e-06
2.17203e-06
1.89924e-06
3.16996e-06
2.6119e-06
2.37677e-06
1.60225e-06
1.90684e-06
5.49206e-06
1.87878e-06
3.14313e-06
2.97301e-06
1.18454e-06
1.89263e-06
2.04166e-06
2.73572e-06
2.42405e-06
3.23083e-06
3.19752e-06
3.2142e-06
1.94492e-06
1.61196e-06
1.86876e-06
3.22435e-06
2.1114e-06
2.96917e-06
6.15288e-06
2.3097e-06
2.39729e-06
2.38029e-06
2.64508e-06
1.66557e-06
1.82377e-06
2.06583e-06
5.73271e-06
2.08467e-06
2.18324e-06
2.43522e-06
3.1188e-06
3.17316e-06
2.05447e-06
1.9592e-06
3.05718e-06
6.44327e-06
2.08796e-06
2.72615e-06
2.15709e-06
1.86812e-06
2.0028e-06
2.10999e-06
2.88994e-06
2.3222e-06
2.3979e-06
1.97629e-06
6.4127e-06
2.16225e-06
3.29198e-06
2.10223e-06
2.66566e-06
1.94415e-06
2.91865e-06
2.58116e-06
2.11703e-06
2.09534e-06
1.91719e-06
7.06046e-06
2.25203e-06
2.06378e-06
6.28159e-06
2.12147e-06
2.90924e-06
2.12921e-06
6.4487e-06
1.41701e-06
2.0682e-06
6.58062e-06
2.52584e-06
2.39732e-06
7.42191e-07
2.22368e-06
7.06751e-07
7.00657e-07
8.93749e-07
2.53536e-06
2.26535e-06
1.33607e-06
7.84725e-07
2.32303e-06
6.06694e-07
6.68276e-07
6.84307e-07
2.51242e-06
2.31629e-06
7.8367e-07
6.80839e-07
6.22692e-06
6.7471e-07
6.65305e-07
7.01158e-07
1.8232e-06
1.90695e-06
6.86722e-07
7.04792e-07
1.86445e-06
2.28572e-06
6.8045e-07
7.16005e-07
1.82373e-06
6.01079e-07
2.02791e-06
7.4579e-07
5.74423e-07
1.80052e-06
1.454e-06
2.2702e-06
1.80636e-06
2.15356e-06
1.79089e-06
1.79456e-06
6.8231e-07
2.24737e-06
1.45239e-06
1.79556e-06
6.97875e-07
6.24265e-07
6.62717e-07
1.44627e-06
1.40138e-06
2.15258e-06
1.82851e-06
1.3994e-06
1.43932e-06
2.19226e-06
6.97732e-07
1.77726e-06
1.79162e-06
6.54258e-07
7.3397e-07
2.34895e-06
7.10392e-07
6.56982e-07
6.26314e-07
2.18926e-06
6.12493e-07
6.03901e-07
5.92831e-07
5.12031e-07
5.11667e-07
4.9467e-07
4.97016e-07
4.96269e-07
5.33079e-07
4.94191e-07
4.97855e-07
4.86862e-07
4.90626e-07
4.94649e-07
4.94954e-07
4.91922e-07
4.89615e-07
4.96354e-07
4.95189e-07
4.82188e-07
1.10854e-06
5.3299e-07
5.44763e-07
5.36655e-07
5.15417e-07
5.01772e-07
5.53774e-07
5.53774e-07
5.53774e-07
5.53774e-07
5.53774e-07
5.53774e-07
5.50785e-07
5.50785e-07
7.45291e-07
7.11668e-07
4.9897e-07

NodalForce_(N) 3 343 double
8.67663e-06 -6.532e-07 -1.7803e-07
7.58986e-05 -7.62669e-06 1.22053e-06
-0.000853792 -0.000518169 -0.000166012
5.14773e-05 -1.08156e-05 4.11503e-06
3.82221e-05 -5.04906e-05 8.54635e-06
6.44725e-05 -4.32088e-05 8.31962e-06
0.000140527 -0.000109518 2.39913e-05
9.67785e-05 -5.27317e-05 1.17819e-05
5.16175e-05 -6.52767e-05 1.32576e-05
5.63724e-05 -2.20188e-05 4.71336e-06
-5.83787e-07 -1.21771e-05 4.38811e-06
2.77169e-05 -6.526e-05 1.64029e-05
-8.02403e-06 -2.34004e-05 6.65841e-06
3.47208e-05 -2.73712e-06 4.60081e-06
7.54584e-06 -9.70183e-06 3.70213e-06
0.000132706 -6.45363e-05 1.31206e-05
0.000105524 -4.60131e-05 1.03336e-05
3.17179e-05 -7.14099e-06 1.80616e-06
0.000237664 -0.000742599 0.000623251
2.39012e-05 -1.18231e-06 -5.43596e-07
5.94987e-05 -6.1979e-05 1.32767e-05
7.99918e-05 -0.000159149 2.9799e-05
-4.16324e-05 0.000885499 0.000447656
1.90909e-05 -2.58764e-05 6.74745e-06
5.83282e-05 -7.28287e-05 2.0851e-05
5.60259e-05 -2.23557e-05 8.14634e-06
2.57042e-06 -1.13939e-06 9.4983e-07
1.65959e-06 -2.50564e-05 8.17218e-06
2.62059e-05 -3.28934e-06 1.6587e-07
8.26554e-05 -4.40927e-06 -9.56814e-07
9.03992e-05 -1.73638e-05 5.60415e-06
0.000370592 -0.000172062 2.91198e-05
0.000151832 -0.000140954 2.96332e-05
0.000137512 -9.34526e-05 2.06222e-05
0.000119926 -6.91038e-05 1.37399e-05
0.000251882 -0.000111544 2.45205e-05
0.000123192 -5.30683e-05 7.85907e-06
0.000369564 -0.000167542 2.8362e-05
2.71275e-05 -1.26849e-05 2.50259e-06
4.23096e-05 -2.38897e-05 7.73265e-06
1.51293e-05 -2.81809e-05 5.10914e-06
0.000167263 -4.15869e-05 4.80592e-06
8.62942e-05 -1.29578e-06 -5.70309e-06
2.91386e-05 -2.65577e-06 -1.9304e-06
0.000113612 -2.05001e-05 -6.87057e-07
-0.000611022 -0.00052476 6.29372e-05
3.1737e-05 -1.91135e-06 -5.09469e-07
0.000302701 -0.000828061 0.000368601
6.29108e-05 -3.92717e-06 -8.33877e-07
9.32408e-06 1.80867e-07 -3.77732e-07
4.73338e-05 -2.13761e-05 3.14799e-06
9.1667e-05 -4.13112e-05 8.49402e-06
7.10919e-05 -2.11826e-06 -2.51886e-06
3.98415e-05 -3.3933e-06 -6.45177e-07
3.02486e-05 -9.50963e-07 -5.59214e-07
8.63295e-05 -8.23806e-05 1.65959e-05
-0.000820162 -0.000264493 -0.000282745
1.4964e-05 -1.44612e-06 -2.88939e-07
-0.000454992 -0.000257467 -6.00196e-05
5.10011e-05 -3.71373e-05 7.82011e-06
1.07343e-05 -2.71375e-06 1.67247e-06
2.88258e-05 -7.94501e-05 1.60575e-05
0.000132384 -0.000243306 5.74078e-05
9.05018e-05 -0.000105429 2.23859e-05
1.92218e-05 -3.06537e-05 5.96798e-06
2.56833e-05 3.21876e-07 -1.78759e-06
-2.90899e-06 -6.21287e-06 1.77328e-06
5.90004e-05 -4.73394e-05 1.11967e-05
8.6675e-05 -5.8547e-05 1.31579e-05
5.69332e-06 -7.64188e-05 1.63162e-05
1.35291e-05 -5.34381e-06 1.63004e-06
1.48364e-06 -2.7184e-06 1.58953e-06
-1.65486e-06 -9.66684e-06 2.14314e-06
5.21201e-05 -1.95097e-05 4.38545e-06
2.99368e-05 -9.14783e-06 2.3399e-06
-0.00125907 -0.00048426 3.47819e-06
4.18943e-05 -2.39415e-05 5.6286e-06
7.61487e-06 -5.71462e-07 -6.54316e-08
7.38427e-05 -2.04838e-05 6.1795e-07
9.35126e-05 -2.44604e-05 2.70357e-07
6.61041e-05 -1.18071e-05 -1.57971e-06
5.04774e-05 -8.88529e-06 -2.02621e-06
0.000124418 -7.45165e-05 1.5666e-05
4.67215e-05 -5.8168e-06 9.67483e-07
-0.000403009 0.00030787 -0.00038975
1.06125e-05 -1.68575e-07 -3.49024e-07
-0.000343656 0.000349643 -0.000321073
0.00115066 -6.22166e-05 5.2895e-05
-0.000122849 -0.000495036 3.37917e-07
2.12018e-05 -3.76754e-06 8.25036e-07
1.40403e-05 9.0167e-07 -7.78264e-07
7.51935e-05 -2.29201e-05 4.20159e-06
6.66362e-05 -7.59946e-06 4.63953e-07
9.70601e-06 -2.36146e-05 6.64267e-06
6.29511e-05 -0.000209933 5.1228e-05
2.76388e-06 -4.73299e-05 1.11423e-05
3.12061e-05 -6.78194e-05 1.4219e-05
2.63393e-05 -4.12045e-05 8.80264e-06
-0.000636472 -0.000586359 -0.000122636
0.000156464 -5.38552e-05 7.9684e-06
2.37964e-05 -4.57267e-05 1.22725e-05
7.21362e-05 -5.65341e-05 1.54355e-05
1.43092e-05 -2.10177e-06 -3.73479e-07
0.000155742 -6.67206e-05 1.04659e-05
5.58015e-06 -4.12285e-06 9.64349e-07
3.49983e-06 -4.60387e-05 1.41804e-05
0.000187488 -6.3531e-05 1.13278e-05
1.22897e-06 -7.68123e-05 1.67607e-05
2.34607e-05 -7.10636e-05 1.34766e-05
3.28022e-06 4.72605e-07 -9.64689e-08
7.83127e-05 -3.34348e-05 5.49874e-06
0.000167457 -4.68458e-05 7.87141e-06
0.000122527 -4.42496e-05 1.12346e-05
0.00055674 -9.64033e-05 0.000514769
1.87847e-05 -4.74888e-05 1.02599e-05
2.40612e-05 -1.47836e-06 3.32268e-07
5.90662e-05 -3.4906e-05 6.41113e-06
0.000152249 -9.61766e-05 2.23433e-05
0.000108732 -3.38184e-05 1.19449e-06
-3.7274e-06 -2.91511e-05 6.65473e-06
2.90251e-05 -9.20298e-05 1.91384e-05
6.59818e-05 -8.67623e-05 1.76364e-05
3.60014e-06 -1.29275e-06 6.66267e-07
-0.000523067 -0.000219366 -0.000251022
1.51216e-06 -5.14048e-07 8.32275e-08
4.37316e-05 -3.22923e-05 7.10415e-06
8.77842e-05 -2.90805e-05 2.49767e-06
-0.000263273 0.00024038 0.000665357
5.61859e-06 3.0212e-07 -3.27044e-07
0.000116615 -2.50531e-05 1.40403e-06
4.88546e-05 -2.08964e-05 2.46638e-06
6.76829e-05 -4.00761e-05 7.32466e-06
1.10531e-06 -2.10768e-05 6.86759e-06
2.5623e-05 -2.77086e-05 7.09847e-06
-0.00138757 -2.96778e-05 3.18981e-05
8.05184e-06 9.86787e-08 -4.74502e-07
-0.000149675 -0.000451714 -9.46151e-05
4.66844e-06 -3.75715e-05 9.19743e-06
4.98931e-05 -3.41269e-05 7.06729e-06
0.000143074 -8.52628e-05 1.73082e-05
7.07567e-05 -5.69355e-05 1.12391e-05
1.71203e-06 -2.37869e-05 7.18e-06
-1.50633e-06 -2.78533e-05 6.78826e-06
1.25096e-05 -5.03143e-05 1.19196e-05
0.00021761 -0.000407728 5.12634e-05
-1.14399e-05 -3.9422e-05 1.1894e-05
-1.81836e-06 -1.40554e-05 3.25651e-06
0.000194107 -0.000144441 3.23822e-05
5.65618e-05 -5.99161e-05 1.29501e-05
2.17337e-05 -4.25206e-06 -5.71372e-07
4.18286e-05 -5.34199e-06 -1.17805e-06
1.35678e-06 -6.23112e-07 3.94411e-07
0.000146164 0.000358708 -0.000189847
2.73087e-05 -2.51254e-05 5.34995e-06
6.84345e-05 -2.42522e-05 2.34753e-06
4.55543e-05 -1.79421e-05 1.64246e-06
-0.000295117 0.000287398 -6.92089e-05
-0.000404069 -0.000106526 0.000171673
2.26507e-05 -1.33092e-05 2.8734e-06
3.50608e-05 -6.35313e-05 1.34721e-05
-2.07297e-06 -7.28998e-06 1.64325e-06
2.11261e-05 -1.79737e-06 -1.21701e-06
1.52449e-05 -3.22292e-05 8.39863e-06
1.7279e-05 -6.10394e-06 8.68665e-07
5.22486e-05 -3.67915e-05 6.37824e-06
3.98532e-05 -2.21444e-05 3.36308e-06
3.48907e-05 -3.65811e-05 9.52983e-06
2.58698e-05 -4.15718e-06 1.30517e-06
6.66823e-05 -2.85004e-05 3.00729e-06
4.97244e-05 -1.96935e-05 1.33484e-06
3.56723e-05 -1.20422e-05 2.13858e-06
0.000104171 -4.72017e-05 1.07526e-05
4.07933e-06 -3.06513e-05 8.52602e-06
1.5632e-05 -1.26905e-06 6.08131e-07
2.32709e-05 -5.27837e-06 1.18493e-06
6.27289e-06 -2.66024e-06 1.00711e-06
4.90606e-05 -1.78334e-05 1.08346e-06
-1.69267e-06 -3.7678e-06 1.16256e-06
6.06397e-05 -5.04496e-05 1.12353e-05
-0.000629455 -0.000348474 0.000114552
4.17083e-05 -6.08518e-05 1.39796e-05
5.30448e-05 -4.9602e-05 1.13381e-05
4.43924e-05 -6.79939e-05 1.51807e-05
-0.000542339 0.000171199 -0.000424751
1.12985e-05 -8.60521e-07 -5.79966e-07
-4.18236e-06 -2.52622e-05 7.09757e-06
1.65986e-05 -4.51795e-05 1.19589e-05
2.24427e-05 -3.03109e-05 7.09252e-06
6.3853e-05 -1.78986e-05 7.38519e-07
9.6311e-05 -2.68755e-05 4.06727e-06
5.22979e-05 -1.49122e-05 9.00963e-07
6.10369e-05 -2.07226e-05 1.50541e-06
1.64706e-05 -2.23093e-07 -5.02236e-07
2.65344e-05 -8.51655e-06 3.06347e-06
-7.63543e-07 -4.82046e-06 1.24856e-06
-1.71567e-06 -5.7137e-06 1.58161e-06
3.8633e-05 -4.0914e-05 8.83311e-06
7.61844e-05 -1.54641e-05 1.76758e-06
3.57908e-05 -3.98154e-05 8.79188e-06
3.95289e-05 -1.89489e-05 4.25589e-06
8.19316e-05 -3.59708e-05 4.04468e-06
-0.000645485 0.000371614 0.000129957
1.47253e-05 -2.4822e-07 -9.48037e-07
-0.000219555 -0.00032427 -0.000395394
3.33769e-05 -8.53083e-06 3.67726e-07
5.74733e-05 -1.33571e-05 -2.23266e-07
7.10562e-05 -2.6277e-05 7.77045e-06
3.29648e-05 -2.29919e-05 5.52318e-06
-8.29301e-07 -2.57769e-05 5.45678e-06
-2.31609e-06 -1.95001e-05 3.81028e-06
9.19901e-06 -1.93941e-07 -5.19281e-07
2.40297e-05 -3.51339e-05 8.64918e-06
3.2687e-05 -3.9949e-05 8.39946e-06
7.94931e-05 -2.79938e-05 3.42304e-06
1.13836e-05 -1.32648e-05 4.02724e-06
-8.02508e-08 -6.16315e-06 2.02851e-06
1.5343e-05 -3.91967e-05 9.81678e-06
3.25136e-05 -3.67686e-06 6.33606e-07
2.72452e-05 -1.5534e-05 4.39873e-06
7.16259e-05 -4.50074e-05 8.96787e-06
4.2296e-05 -1.06907e-05 1.78422e-07
4.23696e-05 -5.09901e-05 1.07627e-05
4.45344e-05 -1.24712e-05 3.29251e-07
-8.49492e-07 -3.88077e-05 8.06507e-06
2.95437e-05 -3.44283e-06 -1.15299e-06
6.92097e-05 -2.34459e-05 -0.000197025
2.28326e-05 -4.28676e-06 7.35525e-08
-3.18866e-06 -1.53726e-05 3.50559e-06
5.66538e-05 -1.18664e-05 2.54525e-06
3.87964e-05 -8.07646e-06 -3.96519e-07
-2.62459e-06 -1.20915e-05 2.52393e-06
4.72229e-05 -9.83927e-06 1.66526e-06
-0.00107451 -0.000497167 -3.08061e-05
-4.05469e-05 4.20997e-05 -0.000312057
3.01793e-05 -9.04329e-06 2.72578e-06
8.71262e-05 -2.41903e-05 5.8394e-06
6.63673e-08 -1.31913e-05 3.44233e-06
4.34928e-05 -3.80076e-05 8.50456e-06
6.19184e-05 -1.00212e-05 1.22522e-06
2.24285e-05 -1.18466e-05 3.06983e-06
5.61952e-05 -4.49811e-05 8.85267e-06
-0.000342352 5.70105e-05 -0.000167407
6.09258e-05 -3.2255e-05 4.78533e-06
8.1221e-07 -3.85957e-06 1.38957e-06
-0.000190948 0.000182397 -0.000131805
1.49549e-05 -3.34215e-06 -2.47888e-07
-0.00146625 -0.000874963 0.000237722
6.58513e-05 -4.18961e-05 7.13137e-06
3.63554e-05 -2.53954e-05 4.42719e-06
6.10883e-05 -0.000176327 -0.000243294
1.8834e-05 -1.47471e-05 4.38491e-06
-8.67417e-05 0.000204342 3.16377e-05
2.41991e-06 -1.6019e-05 3.43963e-06
2.26135e-05 -1.19097e-05 1.93762e-06
3.60776e-05 -7.95842e-06 1.35191e-06
2.7477e-05 -4.68522e-05 9.55826e-06
1.26535e-06 -7.54004e-06 2.42304e-06
0.000503581 0.000552096 0.000279182
3.60707e-05 -1.35603e-05 2.39723e-06
-1.98847e-06 -4.42645e-06 1.33236e-06
8.0668e-07 -1.49821e-05 3.398e-06
0.000476191 0.000610233 0.000239339
6.34786e-05 -2.90337e-05 2.36463e-06
6.33697e-05 -3.6842e-05 4.80547e-06
1.6459e-06 -1.59356e-05 3.37199e-06
1.5446e-05 -1.38912e-05 2.84666e-06
3.86589e-06 -1.14476e-06 5.2739e-09
-0.000877005 -0.000979485 0.000382747
0.00018829 -0.000565001 -0.00030734
0.000267589 -0.000204973 -0.000382766
5.76959e-05 -2.90309e-05 2.96765e-06
2.13669e-05 -1.1324e-05 1.76028e-06
3.66104e-05 -8.05537e-06 -4.59202e-07
1.49927e-05 -1.25668e-05 2.56206e-06
-0.000150532 0.000110692 -5.29093e-05
-0.000779687 -0.000637953 -0.000219634
8.15039e-07 -5.96894e-07 -1.42667e-08
2.29687e-06 -5.10557e-09 1.39321e-07
5.26976e-05 -2.30846e-05 2.25873e-06
7.21412e-06 6.71141e-08 -4.89272e-07
-0.000223892 -0.000353801 0.000217846
5.00449e-05 -2.91152e-05 4.36051e-06
1.97846e-05 -7.09585e-06 2.26044e-07
2.06681e-05 -5.31595e-05 1.26434e-05
5.50395e-06 -8.80885e-08 -1.27505e-07