# vtk DataFile Version 4.2
vtk output
ASCII
DATASET UNSTRUCTURED_GRID

POINTS 343 double
0.0011225 0.00419492 8.7399e-08
0.00217109 0.00498252 0.00217533
0 0.00419538 0.00112517
0.00193011 0.00195446 0.00194214
0.00516972 0.00240694 0.00503204
0.00517244 0.00383009 0.00639731
0.00762279 0.00477554 0.00499845
0.00622466 0.00485048 0.0036915
0.00683663 0.00328871 0.00691354
0.00499117 0.00499257 0.00499963
0.00418088 0.0011182 0.00999891
0.00528143 0.00208035 0.00790379
0.00419075 -7.34873e-06 0.00831698
0.00201254 0.00200249 0.00803323
0.00428662 0.00253293 0.00999894
0.00695678 0.00644685 0.00694646
0.00641382 0.00618247 0.00518271
0.0022607 0.00218464 0.00514608
0 0.00143586 0.00417514
0.00159462 0.00346615 0.00403703
0.00683729 0.00319405 0.00316115
0.0077458 0.00221317 0.00506342
0 0.00270918 0.00154168
0.00415826 0.00142859 9.5368e-08
0.00500791 0.0021879 0.00219782
0.00396247 0.00352673 0.00160302
0.00134546 -5.99773e-07 0.00406001
0.00418352 -7.71349e-06 0.00168816
0.00262611 0.00695165 1.17486e-07
0.00193824 0.00805274 0.00194489
0.00408755 0.00624807 0.00164501
0.00800318 0.00798598 0.00799657
0.0079653 0.00481564 0.0080216
0.0083885 0.00607961 0.00594723
0.00999889 0.00882546 0.00419096
0.00757692 0.00763567 0.00496314
0.00856673 0.00997997 0.00416578
0.00797627 0.0079711 0.00201539
0.00353627 0.00303656 0.00695942
0.00443777 0.00366193 0.00832378
0.00389265 0.00160058 0.00596892
0.00500573 0.00766829 0.00767639
0.00198974 0.00800789 0.00798962
0.00282755 0.0099973 0.0071271
0.00391669 0.00839951 0.0059577
0 0.00695361 0.00262895
0.00164652 0.00623926 0.00408788
0 0.0040177 0.00850214
0.00231518 0.00498571 0.00766147
0.00143343 0.00417448 0.00999994
0.0071754 0.00711806 0.0099972
0.00611856 0.00597073 0.00841688
0.00205192 0.00794142 0.00474182
0.00304385 0.00694289 0.00646765
0.00158699 0.00607835 0.005926
0.00998957 0.00578364 0.00831353
0 0.00718191 0.00711644
0.00158452 0.00577345 4.4551e-08
0 0.00577432 0.00158701
0.00999415 0.00715735 0.00711299
0.0028678 0.00334931 0.00999959
0.00997056 0.00140901 0.00417308
0.00803639 0.00194293 0.00197837
0.00838951 0.00350208 0.00399751
0.003726 0.00164806 0.00412825
0.00150938 0.00999968 0.00581501
0.00280994 -3.54798e-06 0.00712765
0.00611028 0.00417145 0.00837536
0.00999284 0.00724939 0.00419327
0.00852905 -2.20753e-05 0.00416664
0.00334157 0.00286969 8.5073e-08
0.00270066 0.00153887 0.00999962
0.0028186 -3.92891e-06 0.002832
0.00479821 0.00519407 0.00755392
0.00315826 0.00314629 0.00316731
0 0.00849157 0.00581511
0.00486491 0.00366954 0.00378601
0.00153702 0.00270866 3.5463e-08
0.00580017 0.00831594 0.00999787
0.00598509 0.00998929 0.00850438
0.00421428 0.00999408 0.00831705
0.00401819 0.00849833 0.00999871
0.00999842 0.00846678 0.00581199
0.00314744 0.00683354 0.00315082
0 0.00748929 0.00137438
0.00137334 0.00748898 2.09362e-08
0 0.00287343 0.00335182
0 0.00580816 0.00831736
0 0.00429792 0.00253898
0.00253342 0.00429592 1.32659e-07
0.00143403 0.00581917 0.00999995
0.00517559 0.00646859 0.00639976
0.00360362 0.00650937 0.00823364
0.00693331 0.00261306 0.00999754
0.00800034 0.0019398 0.00803326
0.00694233 -1.64437e-05 0.00308138
0.00600102 0.00165251 0.00361238
0.00997553 0.00284742 0.00334998
0 0.00140616 0.00256446
0.00637346 0.00821671 0.0064198
0.00579656 0.00142336 1.37701e-07
0.006022 0.00354103 0.0016029
0.00315715 0.0099965 0.00582503
0.00856228 0.00998015 0.00583086
0.00255396 0.00140304 1.4062e-07
0.00595023 -1.30874e-05 0.00149425
0.00628014 0.00827673 0.00361652
0.00852471 -2.18974e-05 0.00583143
0.00618725 0.00166063 0.00636427
0.00140248 0.00256406 0.00999999
0.00711059 0.00716778 -6.13318e-07
0.00516489 0.00768228 0.00216856
0.00593606 0.00608382 0.00160147
0 0.00686719 0.00578184
0.00996955 0.0013791 0.00256294
0.00177237 0.00360989 0.00640784
0.0099967 0.00846179 0.00262159
0.00840334 0.00617056 0.00413118
0.00598242 0.00998863 0.00149323
0.00694284 -1.61505e-05 0.00692503
0.00997151 0.00140882 0.00581698
0.00837985 0.00355403 0.00605887
0.00150202 -7.59444e-07 0.00581518
0 0.0013659 0.00748679
0.00136387 -6.33352e-07 0.0075289
0.00999217 0.00684256 0.00577881
0.0058146 0.00848122 -3.7775e-07
0 0.0075208 0.00859127
0.00136529 0.00748644 0.00999987
0.00423089 0.00820032 0.00362803
0.00859605 0.00998003 0.00750926
0.01 0.00860557 0.00752266
0.00575614 0.00157571 0.00999811
0.00724644 0.00417359 0.00999733
0 0.0057735 0.00666667
0.00137038 0.00999961 0.00752891
0 0.00863025 0.00752641
0.00855481 -2.24935e-05 0.0025065
0.00999077 0.00692866 0.00262694
0.00845006 0.00632305 0.00216166
0.00850104 0.0058051 0.00999659
0.00746688 0.00135704 0.00999715
0.00855836 -2.21036e-05 0.00750943
0.00997215 0.00133929 0.00748339
0 0.00143551 0.00581971
0.00595325 -1.2619e-05 0.00850432
0.00419355 -7.74862e-06 0.00339985
0.00791987 0.00469033 0.00203354
0.00998049 0.00427252 0.00253722
0.00423166 0.00999386 0.00666592
0.00283645 0.00999734 0.00283186
0.00130708 -6.5559e-07 0.00241832
0 0.00727418 0.00419576
0.00998843 0.0057489 0.00666337
0.00697706 0.00998546 0.0030805
0.00750905 0.00862152 0.00999701
0 0.00574334 0.00336387
0 0.0043297 0.00416652
0.00686281 0.00577157 0.00999753
0.00997808 0.00299656 0.00691205
0.00420666 -7.53786e-06 0.00666626
0.00248059 0.00999769 0.00861128
0.00745934 0.00134796 -2.17896e-07
0.00577104 0.00665767 0.00999791
0.00999634 0.00749634 0.00858724
0.00860625 0.00753453 0.00999646
0.00689469 0.00300752 -7.94659e-08
0.00335862 0.00574045 1.76252e-07
0.00752509 0.00861416 -8.73009e-07
0.00751851 0.00998326 0.00138622
0.00577634 0.00685763 -2.98855e-07
0.00696784 0.00635755 0.00303248
0.00748265 -1.87474e-05 0.00138732
0.00288079 0.00499716 0.00999949
0.00432602 0.00582868 0.00999871
0.00432201 0.00416156 0.00999878
0.00752202 0.00998385 0.00861334
0.00246537 -2.98726e-06 0.00861147
0.0099864 0.00571844 0.0033618
0 0.00302218 0.00691532
0.00998274 0.00399272 0.00849832
0.00848226 0.0039976 -6.25334e-07
0.00997396 0.00268282 0.00154036
0 0.00244495 0.00857025
0.00244624 0.00856822 0.00999941
0.0074863 -1.82374e-05 0.00861324
0.00846719 0.00260386 0.00999661
0.00883656 0.00417331 0.0099964
0.00567537 0.00998991 0.00583224
0.00518487 0.00757591 0.00503169
0.00564705 0.00998985 0.00421439
0.00697748 0.00998579 0.00692468
0.00302103 0.00691334 0.00999924
0.00415689 0.00432469 2.08786e-07
0.00282169 -4.0532e-06 0.0044047
0.00313804 -4.52322e-06 0.00582545
0.00997939 0.00416971 0.00112381
0.00363767 0.00833324 0.00158816
0.00998151 0.00430446 0.00416429
0.00665624 0.00576098 -2.38156e-07
0.00859265 0.00997963 0.00250541
0 0.00848692 0.00262374
0.00135209 0.00999966 0.00405987
0 0.00885053 0.00419359
0.00419437 0.00884439 -6.73892e-08
0.00420822 0.00999367 0.00168748
0.00498971 0.00478451 0.00237865
0.00720374 0.00450672 -2.55685e-07
0.00561668 -1.2007e-05 0.00421519
0.00564507 -1.19385e-05 0.00583268
0.00131355 0.00999967 0.00241806
0.00854436 0.0024238 -5.30498e-07
0.00998395 0.00449684 0.00721614
0.00711994 0.00998517 0.00499867
0.00573083 0.0033543 0.00999815
0.00244575 -3.18859e-06 0.00135671
0.00997678 0.00241901 0.0085665
0.0023918 0.0047898 0.00499988
0.00581946 0.00432 6.48119e-08
0.0083046 0.00578934 -8.18182e-07
0.0054847 0.00999064 0.00721921
0.00998241 0.00430504 0.00583045
0.00540681 0.00999043 0.00277495
0.00708487 -1.67358e-05 0.00499937
0.00283902 0.00999735 0.00440428
0 0.00452174 0.00721958
0.00452057 0.0072146 0.00999856
0.00545496 -1.11595e-05 0.0072192
0.00359796 0.00507051 0.00359642
0.00425616 0.0099938 0.00500769
0.0042305 -7.7164e-06 0.00500834
0.00366635 0.00521349 0.00617432
0 0.005744 0.00499998
0 0.00433013 0.00583333
0.00499211 0.00573721 9.16603e-08
0.00498015 0.00633243 0.00355344
0.00537698 -1.1356e-05 0.00277585
0.00998734 0.00571929 0.00499731
0.00368786 0.00640443 0.00484371
0.00573653 0.00499135 0.00999807
0.00998563 0.00574921 0.00158541
0 0.00666667 0
0.00858466 0.0075011 -1.16243e-06
0.00331633 -5.99051e-06 7.1757e-07
0 0.01 0.00666667
0.00500665 0.00999172 0.0099985
0 0.00288419 0.00499914
0.00999221 0.00746421 0.00137267
0.0099884 0.0066415 -1.58548e-06
0 0.005 0.01
0.00498302 0.00287589 1.14452e-07
0 0.005 0
0.00996462 -2.77859e-05 0.00333171
0.0100048 0.00997456 0.0066631
0.00419269 0.00726906 8.96416e-09
0.00997641 0.0028584 0.00499667
0.0049759 -1.07072e-05 6.15788e-07
0 0 0.00666667
0.00379055 0.00361273 0.00522612
0.00497957 -1.01911e-05 0.00999812
0.00996648 -2.75175e-05 0.00666362
0 0 0.005
0.00878312 0.00997871 0.00121853
0.00999715 0.00875446 0.00121822
0.00996552 -2.7607e-05 0.00499768
0.009982 0.00497442 -1.34653e-06
0.00121555 0.00121927 -8.04673e-09
0 0.00122008 0.00122008
0 0.00333333 0.01
0 0.00666667 0.01
0.00877794 0.00875902 -1.39875e-06
0.010003 0.0099742 0.00333078
0.00421903 0.00999375 0.00339925
0.00999382 0.00664232 0.00999577
0 0.00333333 0
0 0.00122008 0.00877992
0.0012151 -8.04605e-07 0.00877968
0.00121628 0.00121953 0.0100001
0.0087871 0.00997928 0.00877659
0.00122009 0.00877947 0.00999987
0 0.00877992 0.00877992
0.0100014 0.00875517 0.00877585
0.00667052 0.00998606 -9.65327e-07
0.00996808 0.00119271 0.00121899
0.00122103 0.00999946 0.00878006
0.00878329 0.0087598 0.00999639
0.00998738 0.00497534 0.00999581
0 0 0.00333333
0.0066365 -1.59072e-05 3.96828e-07
0.00874511 -2.34406e-05 0.00121972
0.001206 -8.51066e-07 0.00121206
0 0.00877992 0.00122008
0.00121983 0.0087794 9.47861e-08
0.00121218 0.00999951 0.00121141
0.00997225 0.0011933 0.00877598
0.00875446 0.00119783 0.00999636
0.00664125 -1.54106e-05 0.00999712
0.00874907 0.00119721 -4.73859e-07
0.00874926 -2.29176e-05 0.00877641
0.00997566 0.00330718 -1.15039e-06
0.00333826 0.00999561 0.00999944
0.00246146 0.00999789 0.00135629
0.00667485 0.00998676 0.0099977
0.00998097 0.00330808 0.00999581
0 0.01 0.005
0.00262362 0.00848464 1.14779e-07
0.0100039 0.0099744 0.00499702
0 0.01 0.00333333
0 0.00166667 0
0.00996373 -2.80346e-05 0.00166563
0 0.00166667 0.01
0 0.00833333 0
0.00999491 0.00830786 -1.8083e-06
0.00996743 -2.75731e-05 0.00832941
0.0100021 0.009974 0.00166457
0.0100057 0.0099746 0.00832937
0.00166902 0.00999853 0.00999986
0 0.01 0.00833333
0.00833643 0.00998017 -1.42224e-06
0.00829896 -2.20718e-05 -1.36447e-07
0.00830426 -2.15277e-05 0.00999634
0.0083414 0.00998076 0.00999672
0 0 0.00833333
0.0100003 0.00830872 0.00999572
0.00165791 -2.09315e-06 2.33327e-07
0 0 0.00166667
0.00333686 0.00999576 -6.02974e-08
0.00997462 0.00164005 0.00999574
0.00996924 0.00163939 -1.00955e-06
0.0016593 -1.70831e-06 0.00999995
0.00166834 0.00999882 4.05228e-08
0 0.01 0.00166667
0.0100068 0.00997464 0.00999579
0 0 0.01
0.0100013 0.00997381 -2.0888e-06
0.00996831 -2.76839e-05 0.00999547
0 0.01 0.01
0.00996288 -2.82343e-05 -7.55906e-07
0 0.01 0
0 0 0
0.00500389 0.00999123 -4.35632e-07
0.00331898 -5.40081e-06 0.00999894
0 0.00833333 0.01

CELLS 343 686
1 0
1 1
1 2
1 3
1 4
1 5
1 6
1 7
1 8
1 9
1 10
1 11
1 12
1 13
1 14
1 15
1 16
1 17
1 18
1 19
1 20
1 21
1 22
1 23
1 24
1 25
1 26
1 27
1 28
1 29
1 30
1 31
1 32
1 33
1 34
1 35
1 36
1 37
1 38
1 39
1 40
1 41
1 42
1 43
1 44
1 45
1 46
1 47
1 48
1 49
1 50
1 51
1 52
1 53
1 54
1 55
1 56
1 57
1 58
1 59
1 60
1 61
1 62
1 63
1 64
1 65
1 66
1 67
1 68
1 69
1 70
1 71
1 72
1 73
1 74
1 75
1 76
1 77
1 78
1 79
1 80
1 81
1 82
1 83
1 84
1 85
1 86
1 87
1 88
1 89
1 90
1 91
1 92
1 93
1 94
1 95
1 96
1 97
1 98
1 99
1 100
1 101
1 102
1 103
1 104
1 105
1 106
1 107
1 108
1 109
1 110
1 111
1 112
1 113
1 114
1 115
1 116
1 117
1 118
1 119
1 120
1 121
1 122
1 123
1 124
1 125
1 126
1 127
1 128
1 129
1 130
1 131
1 132
1 133
1 134
1 135
1 136
1 137
1 138
1 139
1 140
1 141
1 142
1 143
1 144
1 145
1 146
1 147
1 148
1 149
1 150
1 151
1 152
1 153
1 154
1 155
1 156
1 157
1 158
1 159
1 160
1 161
1 162
1 163
1 164
1 165
1 166
1 167
1 168
1 169
1 170
1 171
1 172
1 173
1 174
1 175
1 176
1 177
1 178
1 179
1 180
1 181
1 182
1 183
1 184
1 185
1 186
1 187
1 188
1 189
1 190
1 191
1 192
1 193
1 194
1 195
1 196
1 197
1 198
1 199
1 200
1 201
1 202
1 203
1 204
1 205
1 206
1 207
1 208
1 209
1 210
1 211
1 212
1 213
1 214
1 215
1 216
1 217
1 218
1 219
1 220
1 221
1 222
1 223
1 224
1 225
1 226
1 227
1 228
1 229
1 230
1 231
1 232
1 233
1 234
1 235
1 236
1 237
1 238
1 239
1 240
1 241
1 242
1 243
1 244
1 245
1 246
1 247
1 248
1 249
1 250
1 251
1 252
1 253
1 254
1 255
1 256
1 257
1 258
1 259
1 260
1 261
1 262
1 263
1 264
1 265
1 266
1 267
1 268
1 269
1 270
1 271
1 272
1 273
1 274
1 275
1 276
1 277
1 278
1 279
1 280
1 281
1 282
1 283
1 284
1 285
1 286
1 287
1 288
1 289
1 290
1 291
1 292
1 293
1 294
1 295
1 296
1 297
1 298
1 299
1 300
1 301
1 302
1 303
1 304
1 305
1 306
1 307
1 308
1 309
1 310
1 311
1 312
1 313
1 314
1 315
1 316
1 317
1 318
1 319
1 320
1 321
1 322
1 323
1 324
1 325
1 326
1 327
1 328
1 329
1 330
1 331
1 332
1 333
1 334
1 335
1 336
1 337
1 338
1 339
1 340
1 341
1 342

CELL_TYPES 343
1
1
1
1
1
1
1
1
1
1
1
1
1
1
1
1
1
1
1
1
1
1
1
1
1
1
1
1
1
1
1
1
1
1
1
1
1
1
1
1
1
1
1
1
1
1
1
1
1
1
1
1
1
1
1
1
1
1
1
1
1
1
1
1
1
1
1
1
1
1
1
1
1
1
1
1
1
1
1
1
1
1
1
1
1
1
1
1
1
1
1
1
1
1
1
1
1
1
1
1
1
1
1
1
1
1
1
1
1
1
1
1
1
1
1
1
1
1
1
1
1
1
1
1
1
1
1
1
1
1
1
1
1
1
1
1
1
1
1
1
1
1
1
1
1
1
1
1
1
1
1
1
1
1
1
1
1
1
1
1
1
1
1
1
1
1
1
1
1
1
1
1
1
1
1
1
1
1
1
1
1
1
1
1
1
1
1
1
1
1
1
1
1
1
1
1
1
1
1
1
1
1
1
1
1
1
1
1
1
1
1
1
1
1
1
1
1
1
1
1
1
1
1
1
1
1
1
1
1
1
1
1
1
1
1
1
1
1
1
1
1
1
1
1
1
1
1
1
1
1
1
1
1
1
1
1
1
1
1
1
1
1
1
1
1
1
1
1
1
1
1
1
1
1
1
1
1
1
1
1
1
1
1
1
1
1
1
1
1
1
1
1
1
1
1
1
1
1
1
1
1
1
1
1
1
1
1
1
1
1
1
1
1
1
1
1
1
1
1
1
1
1
1
1
1
1
1
1
1
1
1
1
1
1
1
1
1
1
1
1
1
1
1

POINT_DATA 343
FIELD FieldData 8

NodeID_(#) 1 343 int
0
1
2
3
4
5
6
7
8
9
10
11
12
13
14
15
16
17
18
19
20
21
22
23
24
25
26
27
28
29
30
31
32
33
34
35
36
37
38
39
40
41
42
43
44
45
46
47
48
49
50
51
52
53
54
55
56
57
58
59
60
61
62
63
64
65
66
67
68
69
70
71
72
73
74
75
76
77
78
79
80
81
82
83
84
85
86
87
88
89
90
91
92
93
94
95
96
97
98
99
100
101
102
103
104
105
106
107
108
109
110
111
112
113
114
115
116
117
118
119
120
121
122
123
124
125
126
127
128
129
130
131
132
133
134
135
136
137
138
139
140
141
142
143
144
145
146
147
148
149
150
151
152
153
154
155
156
157
158
159
160
161
162
163
164
165
166
167
168
169
170
171
172
173
174
175
176
177
178
179
180
181
182
183
184
185
186
187
188
189
190
191
192
193
194
195
196
197
198
199
200
201
202
203
204
205
206
207
208
209
210
211
212
213
214
215
216
217
218
219
220
221
222
223
224
225
226
227
228
229
230
231
232
233
234
235
236
237
238
239
240
241
242
243
244
245
246
247
248
249
250
251
252
253
254
255
256
257
258
259
260
261
262
263
264
265
266
267
268
269
270
271
272
273
274
275
276
277
278
279
280
281
282
283
284
285
286
287
288
289
290
291
292
293
294
295
296
297
298
299
300
301
302
303
304
305
306
307
308
309
310
311
312
313
314
315
316
317
318
319
320
321
322
323
324
325
326
327
328
329
330
331
332
333
334
335
336
337
338
339
340
341
342

Component_(#) 1 343 int
0
0
0
0
0
0
0
0
0
0
0
0
0
0
0
0
0
0
0
0
0
0
0
0
0
0
0
0
0
0
0
0
0
0
0
0
0
0
0
0
0
0
0
0
0
0
0
0
0
0
0
0
0
0
0
0
0
0
0
0
0
0
0
0
0
0
0
0
0
0
0
0
0
0
0
0
0
0
0
0
0
0
0
0
0
0
0
0
0
0
0
0
0
0
0
0
0
0
0
0
0
0
0
0
0
0
0
0
0
0
0
0
0
0
0
0
0
0
0
0
0
0
0
0
0
0
0
0
0
0
0
0
0
0
0
0
0
0
0
0
0
0
0
0
0
0
0
0
0
0
0
0
0
0
0
0
0
0
0
0
0
0
0
0
0
0
0
0
0
0
0
0
0
0
0
0
0
0
0
0
0
0
0
0
0
0
0
0
0
0
0
0
0
0
0
0
0
0
0
0
0
0
0
0
0
0
0
0
0
0
0
0
0
0
0
0
0
0
0
0
0
0
0
0
0
0
0
0
0
0
0
0
0
0
0
0
0
0
0
0
0
0
0
0
0
0
0
0
0
0
0
0
0
0
0
0
0
0
0
0
0
0
0
0
0
0
0
0
0
0
0
0
0
0
0
0
0
0
0
0
0
0
0
0
0
0
0
0
0
0
0
0
0
0
0
0
0
0
0
0
0
0
0
0
0
0
0
0
0
0
0
0
0
0
0
0
0
0
0
0
0
0
0
0
0
0
0
0
0
0
0
0
0
0
0
0
0
0
0
0
0
0
0

NodalMass_(kg) 1 343 double
3.15563e-06
1.41304e-05
2.20912e-06
1.71484e-05
8.42e-06
9.09306e-06
9.93033e-06
7.52198e-06
6.81096e-06
5.58223e-06
3.10888e-06
1.07575e-05
4.87011e-06
1.64955e-05
3.0246e-06
8.05984e-06
6.703e-06
1.0877e-05
4.18978e-06
8.16106e-06
6.14143e-06
1.17902e-05
2.23114e-06
4.25176e-06
1.09915e-05
7.41467e-06
4.21871e-06
3.92484e-06
3.08766e-06
1.31268e-05
7.72627e-06
1.65404e-05
1.19037e-05
7.29666e-06
3.81683e-06
1.11001e-05
3.81317e-06
1.39137e-05
6.37414e-06
8.00975e-06
7.6712e-06
1.18847e-05
1.6399e-05
2.78633e-06
8.93599e-06
2.58087e-06
7.57362e-06
4.23241e-06
1.31286e-05
3.80168e-06
2.7746e-06
7.16776e-06
1.21307e-05
5.11765e-06
8.19728e-06
4.58094e-06
2.79503e-06
3.26126e-06
4.12443e-06
2.11915e-06
3.35177e-06
3.61669e-06
1.56838e-05
7.33679e-06
8.24695e-06
5.00369e-06
2.82625e-06
7.20276e-06
3.26815e-06
4.18751e-06
2.02785e-06
2.42152e-06
3.11835e-06
5.97459e-06
5.87101e-06
4.09374e-06
5.45463e-06
2.28825e-06
4.49759e-06
4.38192e-06
4.50892e-06
4.39234e-06
4.27273e-06
5.32031e-06
1.53201e-06
2.38869e-06
2.02885e-06
4.38798e-06
3.17972e-06
3.14298e-06
4.61567e-06
5.87645e-06
8.18088e-06
2.48341e-06
1.53815e-05
3.49683e-06
7.35227e-06
2.01314e-06
2.0408e-06
7.98183e-06
4.41293e-06
7.1389e-06
1.20123e-06
5.03343e-06
1.61257e-06
4.12601e-06
8.73748e-06
4.37849e-06
7.97173e-06
2.13557e-06
3.38137e-06
9.48623e-06
7.40262e-06
1.80226e-06
2.10222e-06
7.98889e-06
1.87983e-06
7.44814e-06
4.19782e-06
2.37156e-06
4.31705e-06
6.06441e-06
4.30905e-06
2.16843e-06
1.8986e-06
1.81294e-06
3.89762e-06
2.44299e-06
1.65628e-06
8.01374e-06
1.64513e-06
2.3931e-06
3.01363e-06
2.99431e-06
1.36541e-06
1.87293e-06
2.09622e-06
1.94762e-06
1.87618e-06
6.37913e-06
4.58628e-06
2.02767e-06
1.61999e-06
2.41284e-06
3.8865e-06
4.44973e-06
2.29839e-06
1.17349e-05
3.11811e-06
1.354e-06
3.45063e-06
1.81846e-06
2.9382e-06
1.37381e-06
2.41464e-06
2.10451e-06
2.63927e-06
2.14166e-06
1.7943e-06
3.19976e-06
1.36989e-06
2.43489e-06
2.08158e-06
1.3601e-06
2.17203e-06
1.89924e-06
3.16996e-06
2.6119e-06
2.37677e-06
1.60225e-06
1.90684e-06
5.49206e-06
1.87878e-06
3.14313e-06
2.97301e-06
1.18454e-06
1.89263e-06
2.04166e-06
2.73572e-06
2.42405e-06
3.23083e-06
3.19752e-06
3.2142e-06
1.94492e-06
1.61196e-06
1.86876e-06
3.22435e-06
2.1114e-06
2.96917e-06
6.15288e-06
2.3097e-06
2.39729e-06
2.38029e-06
2.64508e-06
1.66557e-06
1.82377e-06
2.06583e-06
5.73271e-06
2.08467e-06
2.18324e-06
2.43522e-06
3.1188e-06
3.17316e-06
2.05447e-06
1.9592e-06
3.05718e-06
6.44327e-06
2.08796e-06
2.72615e-06
2.15709e-06
1.86812e-06
2.0028e-06
2.10999e-06
2.88994e-06
2.3222e-06
2.3979e-06
1.97629e-06
6.4127e-06
2.16225e-06
3.29198e-06
2.10223e-06
2.66566e-06
1.94415e-06
2.91865e-06
2.58116e-06
2.11703e-06
2.09534e-06
1.91719e-06
7.06046e-06
2.25203e-06
2.06378e-06
6.28159e-06
2.12147e-06
2.90924e-06
2.12921e-06
6.4487e-06
1.41701e-06
2.0682e-06
6.58062e-06
2.52584e-06
2.39732e-06
7.42191e-07
2.22368e-06
7.06751e-07
7.00657e-07
8.93749e-07
2.53536e-06
2.26535e-06
1.33607e-06
7.84725e-07
2.32303e-06
6.06694e-07
6.68276e-07
6.84307e-07
2.51242e-06
2.31629e-06
7.8367e-07
6.80839e-07
6.22692e-06
6.7471e-07
6.65305e-07
7.01158e-07
1.8232e-06
1.90695e-06
6.86722e-07
7.04792e-07
1.86445e-06
2.28572e-06
6.8045e-07
7.16005e-07
1.82373e-06
6.01079e-07
2.02791e-06
7.4579e-07
5.74423e-07
1.80052e-06
1.454e-06
2.2702e-06
1.80636e-06
2.15356e-06
1.79089e-06
1.79456e-06
6.8231e-07
2.24737e-06
1.45239e-06
1.79556e-06
6.97875e-07
6.24265e-07
6.62717e-07
1.44627e-06
1.40138e-06
2.15258e-06
1.82851e-06
1.3994e-06
1.43932e-06
2.19226e-06
6.97732e-07
1.77726e-06
1.79162e-06
6.54258e-07
7.3397e-07
2.34895e-06
7.10392e-07
6.56982e-07
6.26314e-07
2.18926e-06
6.12493e-07
6.03901e-07
5.92831e-07
5.12031e-07
5.11667e-07
4.9467e-07
4.97016e-07
4.96269e-07
5.33079e-07
4.94191e-07
4.97855e-07
4.86862e-07
4.90626e-07
4.94649e-07
4.94954e-07
4.91922e-07
4.89615e-07
4.96354e-07
4.95189e-07
4.82188e-07
1.10854e-06
5.3299e-07
5.44763e-07
5.36655e-07
5.15417e-07
5.01772e-07
5.53774e-07
5.53774e-07
5.53774e-07
5.53774e-07
5.53774e-07
5.53774e-07
5.50785e-07
5.50785e-07
7.45291e-07
7.11668e-07
4.9897e-07

NodalForce_(N) 3 343 double
1.59082e-07 -2.07703e-08 6.02327e-09
1.22343e-06 -3.26781e-07 2.75304e-07
0.00030252 0.000365559 0.000421184
1.2455e-07 -3.93682e-07 2.63698e-07
-1.61511e-06 -1.81968e-06 1.31106e-06
-1.59013e-06 -1.68958e-06 1.51214e-06
9.39426e-08 -4.07776e-06 3.64182e-06
9.57924e-07 -2.02605e-06 1.7921e-06
-2.07835e-06 -2.41058e-06 2.0809e-06
1.18928e-07 -9.03908e-07 8.04018e-07
-1.54177e-06 -5.47616e-07 4.39456e-07
-4.56952e-06 -2.57883e-06 2.09471e-06
-2.36971e-06 -9.19737e-07 6.26652e-07
-1.8872e-06 -3.45364e-07 3.55566e-07
-1.24958e-06 -4.57131e-07 4.55499e-07
2.95738e-08 -2.61599e-06 2.53034e-06
8.6567e-07 -1.84989e-06 1.6952e-06
-6.48378e-07 -3.24057e-07 2.71481e-07
-0.00123796 0.00065092 -0.000119637
2.14615e-08 -6.62509e-08 5.13507e-08
9.49991e-08 -2.20831e-06 1.80487e-06
-3.14272e-06 -5.58653e-06 4.50725e-06
-0.000499492 -0.00155047 -0.000790547
3.11944e-07 -7.51985e-07 5.10837e-07
-1.28521e-07 -2.4408e-06 2.00502e-06
9.28343e-07 -8.24357e-07 8.83426e-07
-2.73352e-07 -3.15367e-08 4.43113e-08
-5.02196e-07 -6.99364e-07 5.2361e-07
8.2345e-07 -1.07645e-07 1.35471e-07
1.83321e-06 -1.4974e-07 2.38027e-07
2.14582e-06 -6.74658e-07 9.48314e-07
1.26633e-06 -7.30206e-06 7.00301e-06
-3.2645e-06 -5.30102e-06 4.9882e-06
5.08184e-07 -3.53899e-06 3.24641e-06
2.15714e-06 -2.55847e-06 2.26503e-06
3.63476e-06 -4.40711e-06 3.96552e-06
2.5856e-06 -1.97808e-06 1.71871e-06
9.09687e-06 -6.14075e-06 5.64448e-06
-9.68103e-07 -5.4686e-07 4.70588e-07
-2.08197e-06 -1.0539e-06 1.19222e-06
-1.81048e-06 -1.05212e-06 6.23803e-07
5.54283e-07 -2.05131e-06 2.09285e-06
1.75262e-07 -3.46936e-07 2.65717e-07
4.39985e-07 -1.55467e-07 1.01568e-07
1.56345e-06 -9.62188e-07 7.39072e-07
0.000885724 0.000695102 -0.000372626
3.65655e-07 -1.17732e-07 8.90905e-08
-0.000139555 0.000973066 5.83517e-05
-4.66549e-07 -3.09516e-07 3.45997e-07
-2.3724e-07 -4.17238e-08 2.36365e-08
-4.89658e-07 -9.8384e-07 9.97651e-07
-1.07513e-06 -1.79034e-06 1.91602e-06
9.41638e-07 -1.52987e-07 2.07542e-07
2.24505e-07 -2.19743e-07 2.32561e-07
7.42614e-08 -9.25089e-08 9.66869e-08
-8.42707e-07 -3.07325e-06 2.81597e-06
0.000725705 0.000579952 0.000655915
3.68482e-07 -4.67882e-08 3.01927e-08
-0.000114892 -2.39232e-05 -0.000324463
1.85529e-07 -1.40896e-06 1.29666e-06
-7.98833e-07 -1.89974e-07 2.30087e-07
-1.00637e-06 -2.67242e-06 2.16801e-06
-9.75595e-08 -8.02954e-06 6.46339e-06
-1.91242e-07 -3.78672e-06 3.23965e-06
-1.23191e-06 -1.0534e-06 6.08421e-07
4.06133e-07 -1.74033e-08 3.58375e-08
-7.96331e-07 -2.42661e-07 1.2534e-07
-2.27432e-06 -1.88882e-06 1.91524e-06
1.27215e-06 -2.17002e-06 1.944e-06
-1.83006e-06 -2.48122e-06 1.92513e-06
3.36956e-07 -1.61158e-07 1.50453e-07
-7.45962e-07 -1.6548e-07 1.53406e-07
-5.11116e-07 -2.70266e-07 1.31732e-07
-8.07986e-07 -8.46922e-07 9.59991e-07
9.58391e-09 -3.64543e-07 2.98307e-07
0.00132541 0.00053755 0.000335563
2.62271e-09 -9.12238e-07 7.81202e-07
1.23633e-07 -1.78234e-08 1.56608e-08
-3.27993e-07 -1.1116e-06 1.12163e-06
8.48174e-07 -1.16797e-06 1.17239e-06
6.01745e-07 -6.13869e-07 6.09613e-07
-2.30322e-07 -5.72134e-07 5.40383e-07
1.54516e-06 -2.84666e-06 2.5696e-06
7.86568e-07 -2.47308e-07 2.79525e-07
2.34993e-05 -0.00105279 0.000352802
2.81885e-07 1.25219e-09 4.84623e-09
9.90045e-05 -0.000645608 0.000397705
-0.000640885 -0.000308528 7.3287e-05
-0.000264403 0.000234415 -0.000163984
5.85625e-07 -1.201e-07 1.2788e-07
-2.42441e-07 -3.26272e-08 3.12367e-08
2.54654e-07 -1.00244e-06 9.80689e-07
-5.68031e-07 -5.09382e-07 7.62095e-07
-1.55054e-06 -9.50108e-07 8.51573e-07
-9.03184e-06 -7.79302e-06 6.44582e-06
-1.03413e-06 -1.4828e-06 1.09039e-06
-1.21195e-06 -2.28373e-06 1.69249e-06
-6.80622e-08 -1.43132e-06 1.20688e-06
-7.04385e-05 8.23966e-05 -1.89073e-05
1.6395e-06 -2.29831e-06 2.02575e-06
3.48881e-07 -1.3552e-06 1.03584e-06
1.09267e-06 -1.99535e-06 1.814e-06
2.57165e-07 -9.75319e-08 6.84301e-08
2.56786e-06 -2.61288e-06 2.2953e-06
9.5508e-08 -1.15357e-07 7.41669e-08
-6.68376e-07 -1.35373e-06 1.06441e-06
3.92153e-06 -2.46066e-06 2.15012e-06
-2.61822e-06 -2.58379e-06 2.01104e-06
-3.16551e-06 -2.58315e-06 1.93239e-06
-1.88304e-07 -8.4958e-09 1.43397e-08
2.35204e-06 -1.18686e-06 1.16118e-06
4.22633e-06 -1.75587e-06 1.70867e-06
2.98316e-06 -1.70362e-06 1.81821e-06
-0.00066453 -0.000350943 -0.000729857
-2.63454e-07 -1.55817e-06 1.25882e-06
-2.95266e-07 -1.13958e-07 1.29127e-07
1.27762e-06 -1.25997e-06 1.12684e-06
1.92905e-06 -3.65017e-06 3.26761e-06
3.17828e-06 -1.16662e-06 1.04322e-06
-1.52426e-06 -1.01815e-06 7.29941e-07
-1.90638e-06 -3.18366e-06 2.60106e-06
-1.38231e-06 -3.11029e-06 2.71593e-06
-3.85372e-07 -5.87861e-08 3.84326e-08
0.000234033 0.000196619 9.76268e-05
-1.87302e-07 -2.93869e-08 4.90657e-09
3.34724e-07 -1.20232e-06 1.08959e-06
2.85263e-06 -9.51174e-07 9.46487e-07
-0.000104493 -0.000722329 -0.000385857
-5.55816e-08 -1.73104e-08 1.58706e-08
2.4298e-06 -1.00293e-06 7.52924e-07
5.68986e-07 -8.6398e-07 7.80836e-07
4.99773e-07 -1.58649e-06 1.46535e-06
-1.96929e-06 -8.83096e-07 7.52835e-07
-1.45978e-06 -1.12542e-06 1.1042e-06
0.000473865 -0.00111522 -0.000123861
8.89349e-08 -5.07549e-09 1.15544e-08
7.34442e-05 1.90602e-05 -0.000249714
-5.41563e-07 -1.17221e-06 9.06045e-07
9.49851e-07 -1.24389e-06 1.12058e-06
2.99767e-06 -3.16251e-06 2.85187e-06
-1.5763e-06 -2.29025e-06 2.18201e-06
-1.57433e-06 -9.46943e-07 7.87527e-07
-1.23485e-06 -9.7623e-07 7.48144e-07
-1.48187e-06 -1.78779e-06 1.46743e-06
-0.00101132 0.000270341 0.000109646
-3.12109e-06 -1.48212e-06 1.10642e-06
-5.62322e-07 -4.29596e-07 2.48881e-07
3.3875e-06 -5.32711e-06 4.6785e-06
6.49195e-07 -2.15946e-06 1.85047e-06
3.39273e-07 -1.94343e-07 1.44302e-07
1.03571e-06 -2.04906e-07 1.42023e-07
-7.0015e-08 -1.29213e-08 9.98266e-09
-0.000225169 -0.00068018 -9.02547e-05
-4.19385e-08 -9.23025e-07 8.30458e-07
1.68605e-06 -8.86052e-07 7.40899e-07
-7.19853e-08 -8.60549e-07 8.27272e-07
0.000510667 -0.0007965 0.000255899
-0.00145592 0.000115942 0.000477702
-5.60402e-07 -5.78277e-07 6.10864e-07
-1.18992e-06 -2.25278e-06 1.94039e-06
-5.70797e-07 -2.62479e-07 1.42973e-07
1.9494e-07 -1.11306e-07 1.03598e-07
1.91699e-07 -9.78066e-07 7.73936e-07
-2.81439e-07 -3.03322e-07 3.44611e-07
-3.79197e-08 -1.44131e-06 1.33067e-06
-2.9257e-07 -9.66985e-07 9.23582e-07
7.83878e-07 -1.18495e-06 1.0385e-06
7.85817e-07 -1.40263e-07 2.13975e-07
2.05996e-06 -9.56254e-07 9.10615e-07
1.40714e-06 -6.7729e-07 6.02157e-07
1.10734e-06 -4.31818e-07 4.60449e-07
1.95259e-06 -1.82134e-06 1.69731e-06
-3.08128e-07 -9.19597e-07 7.08741e-07
-5.47861e-07 -1.50905e-07 2.25415e-07
-7.12933e-07 -3.22524e-07 4.6121e-07
-3.8428e-07 -1.44374e-07 1.88257e-07
4.11082e-07 -7.90111e-07 7.45136e-07
-5.90593e-07 -1.62928e-07 7.87778e-08
8.06747e-07 -1.85309e-06 1.62574e-06
0.000263349 -0.000730315 -0.000608318
-1.33026e-06 -2.21672e-06 1.98357e-06
1.29548e-06 -1.69763e-06 1.47608e-06
3.95997e-07 -2.31044e-06 1.906e-06
0.000283283 -0.000787241 0.00038066
-7.4454e-08 -8.38325e-08 8.33006e-08
-1.51731e-06 -9.27253e-07 6.9992e-07
-2.27349e-06 -1.74465e-06 1.52134e-06
-1.13115e-06 -1.17086e-06 1.06755e-06
1.0908e-06 -7.42642e-07 5.75809e-07
1.34749e-06 -1.13259e-06 9.62021e-07
1.15284e-06 -5.79174e-07 4.3803e-07
8.39106e-07 -8.67669e-07 7.40666e-07
-2.81836e-07 -8.45339e-08 1.84559e-07
7.49282e-07 -2.92072e-07 3.57682e-07
-3.29582e-07 -1.5861e-07 7.37117e-08
-4.98963e-07 -1.97716e-07 9.9183e-08
6.84224e-07 -1.43938e-06 1.22816e-06
2.05882e-06 -5.52323e-07 5.77109e-07
1.10309e-07 -1.43464e-06 1.253e-06
1.14866e-06 -6.73311e-07 6.7338e-07
2.04931e-06 -1.27916e-06 1.11768e-06
0.000273079 -0.000378914 0.000224058
2.61093e-07 -2.15915e-08 1.85947e-08
-1.22107e-05 0.00045649 0.000107857
1.09907e-06 -2.69856e-07 2.73875e-07
1.64912e-06 -4.64036e-07 3.84211e-07
1.19357e-06 -1.01275e-06 1.07186e-06
8.67345e-07 -7.99929e-07 7.35458e-07
-9.23832e-07 -8.309e-07 5.35135e-07
-1.01762e-06 -6.6232e-07 4.16426e-07
2.0261e-07 -1.28773e-08 2.34336e-09
4.60616e-07 -1.12373e-06 9.32347e-07
-4.8367e-07 -1.43961e-06 1.28364e-06
1.54716e-06 -1.08888e-06 9.13055e-07
-1.12948e-06 -5.73789e-07 5.81326e-07
-2.05235e-07 -1.51663e-07 9.29908e-08
-1.18294e-06 -1.42539e-06 1.21577e-06
1.0214e-07 -1.89225e-07 2.01243e-07
7.30884e-07 -5.3566e-07 5.44329e-07
1.9871e-06 -1.58994e-06 1.47874e-06
5.61361e-07 -4.83336e-07 4.23497e-07
-3.06753e-07 -1.82871e-06 1.61243e-06
1.1584e-06 -4.52239e-07 3.52835e-07
-1.37851e-06 -1.2766e-06 9.36888e-07
6.42338e-07 -1.49822e-07 9.10797e-08
-0.000726341 -0.000150497 0.000207063
-2.99954e-07 -2.75825e-07 3.38363e-07
-1.06853e-06 -5.52697e-07 3.62406e-07
5.6939e-07 -5.14799e-07 4.67259e-07
7.97905e-07 -3.34015e-07 2.23179e-07
-6.90398e-07 -3.97394e-07 2.06078e-07
-1.01193e-07 -4.57478e-07 4.65775e-07
0.000716069 -0.000798195 -2.66949e-06
-0.000192629 -5.00673e-05 0.00020917
9.07436e-07 -3.14347e-07 4.11879e-07
1.44567e-06 -1.00147e-06 9.53304e-07
-3.32207e-07 -4.0042e-07 2.79234e-07
2.72412e-07 -1.3949e-06 1.24256e-06
6.33737e-07 -4.66463e-07 4.34126e-07
-8.7e-07 -5.46707e-07 6.4054e-07
1.12732e-06 -1.62743e-06 1.42325e-06
0.000342657 -4.80722e-06 0.000259203
1.78519e-06 -1.1313e-06 1.05056e-06
-1.48559e-08 -1.04166e-07 7.13022e-08
0.000573748 -0.000502044 -6.64032e-06
3.08415e-08 -1.83814e-07 1.82712e-07
0.000964249 -0.000272146 -0.000211563
1.55827e-06 -1.49932e-06 1.3506e-06
9.64314e-07 -8.96824e-07 8.07031e-07
9.30895e-05 -0.000330587 2.81619e-05
4.41806e-07 -4.64218e-07 4.23195e-07
-0.000268124 -0.000300479 -0.000261258
-2.42986e-07 -5.10252e-07 4.01272e-07
3.04173e-07 -4.63614e-07 4.13356e-07
1.152e-06 -2.74674e-07 3.49399e-07
-4.62588e-07 -1.63545e-06 1.39842e-06
-2.32048e-08 -2.09228e-07 1.52805e-07
-0.000698627 -0.000746757 -9.02866e-05
-4.0041e-07 -5.65361e-07 4.58613e-07
-4.59744e-07 -1.7426e-07 1.30264e-07
-4.5878e-07 -5.05074e-07 3.99612e-07
-0.000586198 -0.00054186 -2.78247e-05
1.7638e-06 -9.94394e-07 8.86151e-07
1.61878e-06 -1.28057e-06 1.14069e-06
-3.62137e-07 -5.21023e-07 4.13117e-07
3.71392e-07 -4.82788e-07 4.24813e-07
3.43575e-08 -3.41803e-08 6.01065e-09
0.000177491 0.000672695 -0.000273232
-0.000111102 0.00010713 8.45799e-05
5.14449e-05 -0.000242425 4.56075e-05
1.72138e-06 -9.72881e-07 8.91397e-07
4.66983e-07 -4.07386e-07 3.57233e-07
8.97119e-07 -3.05179e-07 1.92051e-07
-1.893e-07 -4.948e-07 4.65901e-07
-1.99695e-07 -0.000169664 7.89293e-05
8.59372e-05 0.000556745 0.000157486
-1.48044e-07 -2.98037e-08 7.38399e-09
-1.97685e-07 -2.48473e-08 1.69026e-08
4.09786e-07 -9.9249e-07 9.23799e-07
-2.65828e-08 -2.60996e-08 1.51671e-08
1.62524e-05 0.000429779 -0.000150382
1.90554e-07 -1.20179e-06 1.10987e-06