# vtk DataFile Version 4.2
vtk output
ASCII
DATASET UNSTRUCTURED_GRID

POINTS 343 double
0.00112288 0.0041948 1.25626e-07
0.00217172 0.00498214 0.00217562
0 0.00419538 0.00112517
0.0019296 0.0019541 0.00194237
0.0051656 0.00240376 0.00503425
0.00516858 0.00382728 0.00639971
0.00762092 0.00476943 0.00500368
0.00622484 0.00484642 0.00369485
0.00683046 0.00328349 0.00691797
0.00499019 0.00499008 0.00500167
0.00417262 0.00111567 0.010001
0.00527394 0.00207685 0.00790665
0.00418266 -1.00154e-05 0.00831889
0.00201035 0.00200216 0.00803355
0.00427952 0.00253069 0.0100012
0.00695503 0.00644193 0.00695101
0.00641402 0.00617827 0.00518632
0.0022592 0.00218417 0.00514644
0 0.00143586 0.00417514
0.00159421 0.00346601 0.00403712
0.00683569 0.00318875 0.00316528
0.00773992 0.00220628 0.00506889
0 0.00270918 0.00154168
0.00415806 0.00142603 1.79492e-06
0.00500634 0.00218465 0.00220039
0.00396312 0.00352504 0.00160471
0.00134412 -7.07645e-07 0.00406016
0.0041805 -1.0234e-05 0.00169004
0.0026292 0.00695107 7.51597e-07
0.00193977 0.00805253 0.00194516
0.00409044 0.00624667 0.00164674
0.00800219 0.00797937 0.00800274
0.00795927 0.00480902 0.00802772
0.00838728 0.00607238 0.00595363
0.0100043 0.00881555 0.00419942
0.00757964 0.00762969 0.00496823
0.00857422 0.0099723 0.0041722
0.00798353 0.00796448 0.0020211
0.00353315 0.00303524 0.00696049
0.00443287 0.00365992 0.00832598
0.00388823 0.00159858 0.00597008
0.00500521 0.00766564 0.00767896
0.00198948 0.00800754 0.00798986
0.00282925 0.00999645 0.00712763
0.00391833 0.00839785 0.00595888
0 0.00695361 0.00262895
0.0016468 0.00623901 0.00408805
0 0.0040177 0.00850214
0.00231411 0.00498532 0.00766186
0.00143217 0.00417429 0.01
0.007171 0.00711272 0.0100025
0.00611483 0.00596693 0.0084208
0.00205257 0.00794119 0.00474207
0.00304378 0.00694219 0.00646829
0.00158674 0.00607816 0.00592617
0.00998426 0.00577374 0.0083225
0 0.00718191 0.00711644
0.00158569 0.0057732 1.87674e-07
0 0.00577432 0.00158701
0.00999274 0.00714751 0.00712185
0.0028636 0.00334843 0.0100006
0.00996393 0.00139838 0.00418163
0.00803414 0.00193551 0.00198416
0.00838691 0.00349451 0.00400379
0.00372284 0.0016462 0.00412929
0.00151025 0.00999962 0.00581511
0.00280517 -4.75543e-06 0.0071283
0.00610414 0.00416751 0.00837927
0.00999575 0.00723956 0.00420176
0.00852055 -3.04952e-05 0.00417319
0.00334291 0.00286848 1.14507e-06
0.00269547 0.00153787 0.0100006
0.00281545 -5.14643e-06 0.0028326
0.00479505 0.00519188 0.00755627
0.00315739 0.00314532 0.00316803
0 0.00849157 0.00581511
0.00486361 0.00366701 0.00378802
0.0015373 0.00270852 1.45327e-07
0.0057977 0.0083122 0.0100016
0.00598644 0.00998532 0.00850831
0.00421527 0.00999203 0.00831903
0.00401651 0.00849635 0.0100006
0.0100009 0.00845691 0.00582064
0.00314877 0.00683277 0.00315157
0 0.00748929 0.00137438
0.00137467 0.00748897 6.02624e-08
0 0.00287343 0.00335182
0 0.00580816 0.00831736
0 0.00429792 0.00253898
0.00253532 0.00429531 7.24397e-07
0.00143294 0.00581905 0.0100001
0.00517494 0.00646596 0.00640216
0.00360176 0.00650837 0.00823501
0.0069225 0.00260747 0.0100026
0.0079898 0.00193246 0.00803939
0.00693624 -2.24573e-05 0.00308577
0.00599705 0.00164801 0.00361561
0.00997238 0.0028371 0.0033585
0 0.00140616 0.00256446
0.00637484 0.00821235 0.00642346
0.00579603 0.00141894 3.44014e-06
0.00602253 0.00353688 0.00160647
0.00315957 0.00999528 0.00582585
0.00856737 0.00997248 0.00583742
0.00255399 0.001402 8.04312e-07
0.00594625 -1.77399e-05 0.00149787
0.006285 0.00827247 0.00361999
0.0085139 -3.02822e-05 0.00583805
0.00617992 0.00165593 0.00636778
0.00140083 0.00256399 0.0100001
0.00711861 0.00716247 4.228e-06
0.00516996 0.00767944 0.00217109
0.00594024 0.00608029 0.00160493
0 0.00686719 0.00578184
0.0099651 0.00136845 0.00257142
0.00177137 0.00360965 0.00640808
0.0100038 0.00845187 0.00263009
0.00840483 0.00616326 0.00413742
0.00599177 0.00998449 0.00149672
0.00693181 -2.22394e-05 0.00692951
0.00996254 0.00139821 0.00582566
0.00837436 0.0035465 0.00606532
0.00150031 -9.55551e-07 0.00581532
0 0.0013659 0.00748679
0.00136209 -8.54901e-07 0.00752895
0.00999215 0.00683274 0.00578746
0.00582355 0.00847752 3.04707e-06
0 0.0075208 0.00859127
0.00136451 0.00748627 0.01
0.00423423 0.00819839 0.00362935
0.00859877 0.00997227 0.00751616
0.0100003 0.00859576 0.00753156
0.00574522 0.00157147 0.0100018
0.00723752 0.00416801 0.0100028
0 0.0057735 0.00666667
0.0013708 0.00999956 0.00752901
0 0.00863025 0.00752641
0.00854857 -3.10316e-05 0.00251306
0.00999534 0.00691885 0.00263541
0.00845453 0.00631565 0.00216797
0.00849384 0.00579768 0.0100036
0.00745374 0.00135032 0.0100029
0.00854519 -3.06569e-05 0.00751616
0.00996071 0.00132865 0.00749223
0 0.00143551 0.00581971
0.00594161 -1.73408e-05 0.00850799
0.0041889 -1.03877e-05 0.00340138
0.00792188 0.00468361 0.00203916
0.0099808 0.00426238 0.00254564
0.00423434 0.00999171 0.00666746
0.00284014 0.00999645 0.00283244
0.00130612 -7.59416e-07 0.00241841
0 0.00727418 0.00419576
0.00998533 0.00573899 0.00667212
0.00698531 0.00998001 0.00308482
0.00750662 0.0086154 0.0100028
0 0.00574334 0.00336387
0 0.0043297 0.00416652
0.00685652 0.00576671 0.0100026
0.00997009 0.00298632 0.00692084
0.00419958 -1.02385e-05 0.00666778
0.00248125 0.009997 0.00861191
0.00745858 0.0013412 5.00689e-06
0.0057666 0.00665427 0.0100017
0.00999341 0.00748652 0.00859619
0.00860176 0.00752694 0.0100036
0.0068963 0.00300205 4.53014e-06
0.00336197 0.00573957 1.34554e-06
0.00753549 0.00860813 4.53331e-06
0.00752913 0.009977 0.00139151
0.00578309 0.00685416 3.10738e-06
0.0069711 0.00635254 0.00303684
0.00747829 -2.56842e-05 0.00139261
0.00287754 0.0049964 0.0100006
0.00432148 0.00582699 0.010001
0.0043162 0.00415969 0.0100012
0.00752323 0.00997767 0.00861911
0.00246057 -4.11538e-06 0.00861205
0.00998796 0.00570846 0.00337025
0 0.00302218 0.00691532
0.00997417 0.00398268 0.0085073
0.00848575 0.00398981 5.87823e-06
0.00997304 0.0026724 0.00154873
0 0.00244495 0.00857025
0.00244504 0.00856742 0.0100002
0.00747269 -2.5271e-05 0.00861876
0.00845481 0.00259598 0.0100036
0.00882652 0.00416515 0.0100039
0.00567932 0.00998618 0.00583502
0.00518676 0.00757309 0.00503391
0.00565287 0.00998611 0.00421707
0.00698077 0.00998042 0.00692916
0.00301861 0.00691275 0.0100004
0.00415972 0.00432298 2.12481e-06
0.00281809 -5.39503e-06 0.00440533
0.00313329 -6.04424e-06 0.00582623
0.00998145 0.00415952 0.0011322
0.00364192 0.00833175 0.00158958
0.0099796 0.00429437 0.00417286
0.00666194 0.00575632 4.10335e-06
0.00860245 0.00997186 0.00251189
0 0.00848692 0.00262374
0.00135298 0.00999955 0.00405995
0 0.00885053 0.00419359
0.00420133 0.00884229 1.9153e-06
0.00421494 0.0099914 0.00168924
0.00499101 0.00478209 0.00238099
0.0072077 0.00450103 4.70281e-06
0.00561033 -1.63229e-05 0.00421796
0.00563682 -1.62873e-05 0.00583546
0.00131481 0.00999957 0.00241809
0.00854532 0.00241566 6.01953e-06
0.00997801 0.00448683 0.00722497
0.00712584 0.00997958 0.00500318
0.00572232 0.00335063 0.0100019
0.00244379 -4.07785e-06 0.00135727
0.00996555 0.00240856 0.0085755
0.00239141 0.00478932 0.00500033
0.00582265 0.00431628 3.61269e-06
0.00831097 0.00578215 5.51681e-06
0.00548727 0.00998721 0.00722213
0.0099781 0.00429499 0.00583915
0.00541406 0.00998697 0.0027775
0.00707624 -2.29404e-05 0.00500396
0.002842 0.00999647 0.00440478
0 0.00452174 0.00721958
0.00451741 0.00721257 0.010001
0.00544553 -1.52434e-05 0.00722196
0.00359816 0.00506936 0.00359736
0.00426031 0.00999158 0.0050091
0.00422458 -1.04288e-05 0.00500976
0.0036652 0.00521234 0.00617538
0 0.005744 0.00499998
0 0.00433013 0.00583333
0.00499681 0.00573491 2.82182e-06
0.00498209 0.00633002 0.00355551
0.00537216 -1.53612e-05 0.00277862
0.00998657 0.00570934 0.00500591
0.00368834 0.00640329 0.00484464
0.00573007 0.00498806 0.0100018
0.00998968 0.0057392 0.00159379
0 0.00666667 0
0.00859383 0.0074935 5.50792e-06
0.00331502 -8.0441e-06 2.13045e-06
0 0.01 0.00666667
0.00500599 0.00998868 0.0100015
0 0.00288419 0.00499914
0.00999937 0.0074544 0.00138109
0.00999602 0.00663157 6.94947e-06
0 0.005 0.01
0.00498429 0.00287294 2.6845e-06
0 0.005 0
0.00995682 -3.85967e-05 0.00334024
0.0100085 0.00996461 0.00667185
0.00419813 0.00726734 1.98033e-06
0.0099709 0.00284814 0.00500533
0.00497403 -1.44526e-05 3.33351e-06
0 0 0.00666667
0.00378862 0.00361132 0.00522717
0.00496846 -1.38114e-05 0.010001
0.00995402 -3.82653e-05 0.00667232
0 0 0.005
0.00879464 0.00997065 0.00122539
0.0100066 0.00874453 0.00122667
0.00995538 -3.83491e-05 0.00500631
0.00998683 0.00496437 7.16243e-06
0.00121542 0.00121899 4.54176e-08
0 0.00122008 0.00122008
0 0.00333333 0.01
0 0.00666667 0.01
0.00878909 0.00875108 5.50619e-06
0.0100114 0.00996425 0.00333923
0.00422441 0.00999151 0.00340058
0.0099875 0.00663251 0.0100049
0 0.00333333 0
0 0.00122008 0.00877992
0.00121332 -1.09436e-06 0.00877976
0.0012147 0.00121935 0.0100002
0.00878805 0.00997118 0.00878407
0.00121967 0.00877927 0.00999998
0 0.00877992 0.00877992
0.0100002 0.00874527 0.00878489
0.00668224 0.00998102 3.39627e-06
0.00996515 0.00118197 0.00122738
0.0012212 0.00999933 0.00878036
0.00878069 0.00875174 0.0100039
0.00997829 0.00496534 0.010005
0 0 0.00333333
0.00663392 -2.17429e-05 4.87617e-06
0.00874051 -3.23891e-05 0.00122661
0.00120529 -1.04406e-06 0.00121236
0 0.00877992 0.00122008
0.00122125 0.00877933 1.88617e-07
0.00121364 0.00999937 0.00121151
0.00995874 0.00118261 0.00878494
0.00873967 0.00118908 0.0100037
0.00662701 -2.10784e-05 0.0100018
0.008748 0.0011884 6.34491e-06
0.00873426 -3.18427e-05 0.00878361
0.00997779 0.00329685 7.30992e-06
0.00333784 0.00999397 0.010001
0.00246544 0.00999715 0.00135683
0.00667447 0.00998165 0.0100027
0.00996916 0.00329793 0.0100049
0 0.01 0.005
0.00262776 0.00848402 8.31559e-07
0.0100099 0.00996443 0.00500556
0 0.01 0.00333333
0 0.00166667 0
0.00995823 -3.89156e-05 0.0016741
0 0.00166667 0.01
0 0.00833333 0
0.0100052 0.00829799 6.65654e-06
0.00995263 -3.84089e-05 0.0083383
0.0100129 0.009964 0.00167304
0.0100071 0.00996462 0.00833846
0.00166906 0.00999806 0.0100003
0 0.01 0.00833333
0.0083493 0.00997277 4.97841e-06
0.00829607 -3.04001e-05 6.20643e-06
0.00828804 -2.98032e-05 0.0100032
0.00834073 0.00997323 0.0100037
0 0 0.00833333
0.00999676 0.0082988 0.0100049
0.00165693 -2.71893e-06 5.95128e-07
0 0 0.00166667
0.00334355 0.00999433 1.18634e-06
0.00996011 0.00162939 0.0100049
0.00996862 0.00162872 7.41878e-06
0.0016561 -2.29711e-06 0.0100004
0.00167122 0.00999847 3.75164e-07
0 0.01 0.00166667
0.0100058 0.00996453 0.010005
0 0 0.01
0.0100143 0.00996386 6.37041e-06
0.00995115 -3.85013e-05 0.0100045
0 0.01 0.01
0.00995955 -3.92532e-05 7.71891e-06
0 0.01 0
0 0 0
0.00501342 0.00998809 2.1941e-06
0.00331127 -7.16404e-06 0.0100003
0 0.00833333 0.01

CELLS 343 686
1 0
1 1
1 2
1 3
1 4
1 5
1 6
1 7
1 8
1 9
1 10
1 11
1 12
1 13
1 14
1 15
1 16
1 17
1 18
1 19
1 20
1 21
1 22
1 23
1 24
1 25
1 26
1 27
1 28
1 29
1 30
1 31
1 32
1 33
1 34
1 35
1 36
1 37
1 38
1 39
1 40
1 41
1 42
1 43
1 44
1 45
1 46
1 47
1 48
1 49
1 50
1 51
1 52
1 53
1 54
1 55
1 56
1 57
1 58
1 59
1 60
1 61
1 62
1 63
1 64
1 65
1 66
1 67
1 68
1 69
1 70
1 71
1 72
1 73
1 74
1 75
1 76
1 77
1 78
1 79
1 80
1 81
1 82
1 83
1 84
1 85
1 86
1 87
1 88
1 89
1 90
1 91
1 92
1 93
1 94
1 95
1 96
1 97
1 98
1 99
1 100
1 101
1 102
1 103
1 104
1 105
1 106
1 107
1 108
1 109
1 110
1 111
1 112
1 113
1 114
1 115
1 116
1 117
1 118
1 119
1 120
1 121
1 122
1 123
1 124
1 125
1 126
1 127
1 128
1 129
1 130
1 131
1 132
1 133
1 134
1 135
1 136
1 137
1 138
1 139
1 140
1 141
1 142
1 143
1 144
1 145
1 146
1 147
1 148
1 149
1 150
1 151
1 152
1 153
1 154
1 155
1 156
1 157
1 158
1 159
1 160
1 161
1 162
1 163
1 164
1 165
1 166
1 167
1 168
1 169
1 170
1 171
1 172
1 173
1 174
1 175
1 176
1 177
1 178
1 179
1 180
1 181
1 182
1 183
1 184
1 185
1 186
1 187
1 188
1 189
1 190
1 191
1 192
1 193
1 194
1 195
1 196
1 197
1 198
1 199
1 200
1 201
1 202
1 203
1 204
1 205
1 206
1 207
1 208
1 209
1 210
1 211
1 212
1 213
1 214
1 215
1 216
1 217
1 218
1 219
1 220
1 221
1 222
1 223
1 224
1 225
1 226
1 227
1 228
1 229
1 230
1 231
1 232
1 233
1 234
1 235
1 236
1 237
1 238
1 239
1 240
1 241
1 242
1 243
1 244
1 245
1 246
1 247
1 248
1 249
1 250
1 251
1 252
1 253
1 254
1 255
1 256
1 257
1 258
1 259
1 260
1 261
1 262
1 263
1 264
1 265
1 266
1 267
1 268
1 269
1 270
1 271
1 272
1 273
1 274
1 275
1 276
1 277
1 278
1 279
1 280
1 281
1 282
1 283
1 284
1 285
1 286
1 287
1 288
1 289
1 290
1 291
1 292
1 293
1 294
1 295
1 296
1 297
1 298
1 299
1 300
1 301
1 302
1 303
1 304
1 305
1 306
1 307
1 308
1 309
1 310
1 311
1 312
1 313
1 314
1 315
1 316
1 317
1 318
1 319
1 320
1 321
1 322
1 323
1 324
1 325
1 326
1 327
1 328
1 329
1 330
1 331
1 332
1 333
1 334
1 335
1 336
1 337
1 338
1 339
1 340
1 341
1 342

CELL_TYPES 343
1
1
1
1
1
1
1
1
1
1
1
1
1
1
1
1
1
1
1
1
1
1
1
1
1
1
1
1
1
1
1
1
1
1
1
1
1
1
1
1
1
1
1
1
1
1
1
1
1
1
1
1
1
1
1
1
1
1
1
1
1
1
1
1
1
1
1
1
1
1
1
1
1
1
1
1
1
1
1
1
1
1
1
1
1
1
1
1
1
1
1
1
1
1
1
1
1
1
1
1
1
1
1
1
1
1
1
1
1
1
1
1
1
1
1
1
1
1
1
1
1
1
1
1
1
1
1
1
1
1
1
1
1
1
1
1
1
1
1
1
1
1
1
1
1
1
1
1
1
1
1
1
1
1
1
1
1
1
1
1
1
1
1
1
1
1
1
1
1
1
1
1
1
1
1
1
1
1
1
1
1
1
1
1
1
1
1
1
1
1
1
1
1
1
1
1
1
1
1
1
1
1
1
1
1
1
1
1
1
1
1
1
1
1
1
1
1
1
1
1
1
1
1
1
1
1
1
1
1
1
1
1
1
1
1
1
1
1
1
1
1
1
1
1
1
1
1
1
1
1
1
1
1
1
1
1
1
1
1
1
1
1
1
1
1
1
1
1
1
1
1
1
1
1
1
1
1
1
1
1
1
1
1
1
1
1
1
1
1
1
1
1
1
1
1
1
1
1
1
1
1
1
1
1
1
1
1
1
1
1
1
1
1
1
1
1
1
1
1
1
1
1
1
1
1
1
1
1
1
1
1
1
1
1
1
1
1
1
1
1
1
1
1

POINT_DATA 343
FIELD FieldData 8

NodeID_(#) 1 343 int
0
1
2
3
4
5
6
7
8
9
10
11
12
13
14
15
16
17
18
19
20
21
22
23
24
25
26
27
28
29
30
31
32
33
34
35
36
37
38
39
40
41
42
43
44
45
46
47
48
49
50
51
52
53
54
55
56
57
58
59
60
61
62
63
64
65
66
67
68
69
70
71
72
73
74
75
76
77
78
79
80
81
82
83
84
85
86
87
88
89
90
91
92
93
94
95
96
97
98
99
100
101
102
103
104
105
106
107
108
109
110
111
112
113
114
115
116
117
118
119
120
121
122
123
124
125
126
127
128
129
130
131
132
133
134
135
136
137
138
139
140
141
142
143
144
145
146
147
148
149
150
151
152
153
154
155
156
157
158
159
160
161
162
163
164
165
166
167
168
169
170
171
172
173
174
175
176
177
178
179
180
181
182
183
184
185
186
187
188
189
190
191
192
193
194
195
196
197
198
199
200
201
202
203
204
205
206
207
208
209
210
211
212
213
214
215
216
217
218
219
220
221
222
223
224
225
226
227
228
229
230
231
232
233
234
235
236
237
238
239
240
241
242
243
244
245
246
247
248
249
250
251
252
253
254
255
256
257
258
259
260
261
262
263
264
265
266
267
268
269
270
271
272
273
274
275
276
277
278
279
280
281
282
283
284
285
286
287
288
289
290
291
292
293
294
295
296
297
298
299
300
301
302
303
304
305
306
307
308
309
310
311
312
313
314
315
316
317
318
319
320
321
322
323
324
325
326
327
328
329
330
331
332
333
334
335
336
337
338
339
340
341
342

Component_(#) 1 343 int
0
0
0
0
0
0
0
0
0
0
0
0
0
0
0
0
0
0
0
0
0
0
0
0
0
0
0
0
0
0
0
0
0
0
0
0
0
0
0
0
0
0
0
0
0
0
0
0
0
0
0
0
0
0
0
0
0
0
0
0
0
0
0
0
0
0
0
0
0
0
0
0
0
0
0
0
0
0
0
0
0
0
0
0
0
0
0
0
0
0
0
0
0
0
0
0
0
0
0
0
0
0
0
0
0
0
0
0
0
0
0
0
0
0
0
0
0
0
0
0
0
0
0
0
0
0
0
0
0
0
0
0
0
0
0
0
0
0
0
0
0
0
0
0
0
0
0
0
0
0
0
0
0
0
0
0
0
0
0
0
0
0
0
0
0
0
0
0
0
0
0
0
0
0
0
0
0
0
0
0
0
0
0
0
0
0
0
0
0
0
0
0
0
0
0
0
0
0
0
0
0
0
0
0
0
0
0
0
0
0
0
0
0
0
0
0
0
0
0
0
0
0
0
0
0
0
0
0
0
0
0
0
0
0
0
0
0
0
0
0
0
0
0
0
0
0
0
0
0
0
0
0
0
0
0
0
0
0
0
0
0
0
0
0
0
0
0
0
0
0
0
0
0
0
0
0
0
0
0
0
0
0
0
0
0
0
0
0
0
0
0
0
0
0
0
0
0
0
0
0
0
0
0
0
0
0
0
0
0
0
0
0
0
0
0
0
0
0
0
0
0
0
0
0
0
0
0
0
0
0
0
0
0
0
0
0
0
0
0
0
0
0
0

NodalMass_(kg) 1 343 double
3.15563e-06
1.41304e-05
2.20912e-06
1.71484e-05
8.42e-06
9.09306e-06
9.93033e-06
7.52198e-06
6.81096e-06
5.58223e-06
3.10888e-06
1.07575e-05
4.87011e-06
1.64955e-05
3.0246e-06
8.05984e-06
6.703e-06
1.0877e-05
4.18978e-06
8.16106e-06
6.14143e-06
1.17902e-05
2.23114e-06
4.25176e-06
1.09915e-05
7.41467e-06
4.21871e-06
3.92484e-06
3.08766e-06
1.31268e-05
7.72627e-06
1.65404e-05
1.19037e-05
7.29666e-06
3.81683e-06
1.11001e-05
3.81317e-06
1.39137e-05
6.37414e-06
8.00975e-06
7.6712e-06
1.18847e-05
1.6399e-05
2.78633e-06
8.93599e-06
2.58087e-06
7.57362e-06
4.23241e-06
1.31286e-05
3.80168e-06
2.7746e-06
7.16776e-06
1.21307e-05
5.11765e-06
8.19728e-06
4.58094e-06
2.79503e-06
3.26126e-06
4.12443e-06
2.11915e-06
3.35177e-06
3.61669e-06
1.56838e-05
7.33679e-06
8.24695e-06
5.00369e-06
2.82625e-06
7.20276e-06
3.26815e-06
4.18751e-06
2.02785e-06
2.42152e-06
3.11835e-06
5.97459e-06
5.87101e-06
4.09374e-06
5.45463e-06
2.28825e-06
4.49759e-06
4.38192e-06
4.50892e-06
4.39234e-06
4.27273e-06
5.32031e-06
1.53201e-06
2.38869e-06
2.02885e-06
4.38798e-06
3.17972e-06
3.14298e-06
4.61567e-06
5.87645e-06
8.18088e-06
2.48341e-06
1.53815e-05
3.49683e-06
7.35227e-06
2.01314e-06
2.0408e-06
7.98183e-06
4.41293e-06
7.1389e-06
1.20123e-06
5.03343e-06
1.61257e-06
4.12601e-06
8.73748e-06
4.37849e-06
7.97173e-06
2.13557e-06
3.38137e-06
9.48623e-06
7.40262e-06
1.80226e-06
2.10222e-06
7.98889e-06
1.87983e-06
7.44814e-06
4.19782e-06
2.37156e-06
4.31705e-06
6.06441e-06
4.30905e-06
2.16843e-06
1.8986e-06
1.81294e-06
3.89762e-06
2.44299e-06
1.65628e-06
8.01374e-06
1.64513e-06
2.3931e-06
3.01363e-06
2.99431e-06
1.36541e-06
1.87293e-06
2.09622e-06
1.94762e-06
1.87618e-06
6.37913e-06
4.58628e-06
2.02767e-06
1.61999e-06
2.41284e-06
3.8865e-06
4.44973e-06
2.29839e-06
1.17349e-05
3.11811e-06
1.354e-06
3.45063e-06
1.81846e-06
2.9382e-06
1.37381e-06
2.41464e-06
2.10451e-06
2.63927e-06
2.14166e-06
1.7943e-06
3.19976e-06
1.36989e-06
2.43489e-06
2.08158e-06
1.3601e-06
2.17203e-06
1.89924e-06
3.16996e-06
2.6119e-06
2.37677e-06
1.60225e-06
1.90684e-06
5.49206e-06
1.87878e-06
3.14313e-06
2.97301e-06
1.18454e-06
1.89263e-06
2.04166e-06
2.73572e-06
2.42405e-06
3.23083e-06
3.19752e-06
3.2142e-06
1.94492e-06
1.61196e-06
1.86876e-06
3.22435e-06
2.1114e-06
2.96917e-06
6.15288e-06
2.3097e-06
2.39729e-06
2.38029e-06
2.64508e-06
1.66557e-06
1.82377e-06
2.06583e-06
5.73271e-06
2.08467e-06
2.18324e-06
2.43522e-06
3.1188e-06
3.17316e-06
2.05447e-06
1.9592e-06
3.05718e-06
6.44327e-06
2.08796e-06
2.72615e-06
2.15709e-06
1.86812e-06
2.0028e-06
2.10999e-06
2.88994e-06
2.3222e-06
2.3979e-06
1.97629e-06
6.4127e-06
2.16225e-06
3.29198e-06
2.10223e-06
2.66566e-06
1.94415e-06
2.91865e-06
2.58116e-06
2.11703e-06
2.09534e-06
1.91719e-06
7.06046e-06
2.25203e-06
2.06378e-06
6.28159e-06
2.12147e-06
2.90924e-06
2.12921e-06
6.4487e-06
1.41701e-06
2.0682e-06
6.58062e-06
2.52584e-06
2.39732e-06
7.42191e-07
2.22368e-06
7.06751e-07
7.00657e-07
8.93749e-07
2.53536e-06
2.26535e-06
1.33607e-06
7.84725e-07
2.32303e-06
6.06694e-07
6.68276e-07
6.84307e-07
2.51242e-06
2.31629e-06
7.8367e-07
6.80839e-07
6.22692e-06
6.7471e-07
6.65305e-07
7.01158e-07
1.8232e-06
1.90695e-06
6.86722e-07
7.04792e-07
1.86445e-06
2.28572e-06
6.8045e-07
7.16005e-07
1.82373e-06
6.01079e-07
2.02791e-06
7.4579e-07
5.74423e-07
1.80052e-06
1.454e-06
2.2702e-06
1.80636e-06
2.15356e-06
1.79089e-06
1.79456e-06
6.8231e-07
2.24737e-06
1.45239e-06
1.79556e-06
6.97875e-07
6.24265e-07
6.62717e-07
1.44627e-06
1.40138e-06
2.15258e-06
1.82851e-06
1.3994e-06
1.43932e-06
2.19226e-06
6.97732e-07
1.77726e-06
1.79162e-06
6.54258e-07
7.3397e-07
2.34895e-06
7.10392e-07
6.56982e-07
6.26314e-07
2.18926e-06
6.12493e-07
6.03901e-07
5.92831e-07
5.12031e-07
5.11667e-07
4.9467e-07
4.97016e-07
4.96269e-07
5.33079e-07
4.94191e-07
4.97855e-07
4.86862e-07
4.90626e-07
4.94649e-07
4.94954e-07
4.91922e-07
4.89615e-07
4.96354e-07
4.95189e-07
4.82188e-07
1.10854e-06
5.3299e-07
5.44763e-07
5.36655e-07
5.15417e-07
5.01772e-07
5.53774e-07
5.53774e-07
5.53774e-07
5.53774e-07
5.53774e-07
5.53774e-07
5.50785e-07
5.50785e-07
7.45291e-07
7.11668e-07
4.9897e-07

NodalForce_(N) 3 343 double
-6.90392e-07 1.31801e-07 -3.03077e-08
-5.76934e-06 1.98722e-06 -1.22405e-06
0.000707614 0.000572019 0.000509637
7.54748e-07 2.28546e-06 -1.24253e-06
8.97309e-06 1.03053e-05 -5.82233e-06
7.81687e-06 9.70242e-06 -6.78828e-06
-6.19302e-07 2.3309e-05 -1.63608e-05
-4.59246e-06 1.16814e-05 -7.93018e-06
1.04157e-05 1.36516e-05 -9.47818e-06
-7.83777e-07 5.25394e-06 -3.54364e-06
7.77024e-06 3.00938e-06 -2.0828e-06
2.3222e-05 1.44021e-05 -9.61365e-06
1.23413e-05 5.00218e-06 -2.88429e-06
9.49238e-06 1.92354e-06 -1.67331e-06
6.12837e-06 2.56026e-06 -2.15457e-06
-1.79461e-06 1.50537e-05 -1.14707e-05
-5.11464e-06 1.06996e-05 -7.54397e-06
3.70637e-06 1.88951e-06 -1.15288e-06
-0.00169414 0.000957396 -0.000413789
7.77038e-08 4.10706e-07 -1.81054e-07
4.89658e-07 1.25493e-05 -8.03189e-06
1.75038e-05 3.1434e-05 -2.03347e-05
-0.00074689 -0.00217912 -0.00110735
-3.7512e-07 4.24987e-06 -2.31582e-06
3.04669e-06 1.37966e-05 -9.07966e-06
-3.67273e-06 4.77431e-06 -3.99393e-06
1.63259e-06 1.7584e-07 -2.01938e-07
3.62995e-06 3.92546e-06 -2.40396e-06
-3.99599e-06 6.7328e-07 -6.08446e-07
-9.62509e-06 9.95117e-07 -1.05264e-06
-1.05979e-05 4.08046e-06 -4.23822e-06
-1.22402e-05 4.1614e-05 -3.19599e-05
1.46916e-05 3.02033e-05 -2.28938e-05
-3.58704e-06 2.02431e-05 -1.4693e-05
-1.17735e-05 1.45668e-05 -1.01646e-05
-2.05331e-05 2.53006e-05 -1.77253e-05
-1.42335e-05 1.1257e-05 -7.64508e-06
-4.70014e-05 3.53896e-05 -2.49886e-05
4.86391e-06 3.15054e-06 -2.08647e-06
9.98621e-06 6.0539e-06 -5.50299e-06
9.73359e-06 5.88435e-06 -2.77539e-06
-5.85767e-06 1.17717e-05 -9.4186e-06
-2.73305e-06 1.96302e-06 -1.04015e-06
-2.81393e-06 8.80193e-07 -3.98151e-07
-9.625e-06 5.5565e-06 -3.16145e-06
0.00130954 0.00113739 -0.000475717
-1.98785e-06 6.92843e-07 -3.74121e-07
-0.000548788 0.00136194 -0.000142223
1.47314e-06 1.84965e-06 -1.48477e-06
1.0172e-06 2.41875e-07 -1.07887e-07
1.47454e-06 5.59761e-06 -4.60861e-06
3.86662e-06 1.02874e-05 -8.78554e-06
-5.55519e-06 1.00082e-06 -8.23394e-07
-1.68656e-06 1.31064e-06 -9.6849e-07
-7.00722e-07 5.51378e-07 -4.05921e-07
3.24794e-06 1.74343e-05 -1.29428e-05
0.00117832 0.000704417 0.000893231
-1.75656e-06 2.94672e-07 -1.32672e-07
-7.85178e-05 2.02888e-05 -0.000447569
-1.48132e-06 8.00961e-06 -5.91912e-06
3.76111e-06 1.08107e-06 -1.09267e-06
5.93333e-06 1.4955e-05 -9.81377e-06
5.27284e-06 4.52653e-05 -2.89734e-05
1.80432e-06 2.14703e-05 -1.45616e-05
7.24196e-06 5.93408e-06 -2.68614e-06
-2.51966e-06 8.32899e-08 -1.16128e-07
4.25866e-06 1.31415e-06 -5.73162e-07
1.06774e-05 1.07818e-05 -8.80769e-06
-6.84479e-06 1.23793e-05 -8.74855e-06
1.05709e-05 1.37865e-05 -8.71904e-06
-1.32566e-06 9.46404e-07 -6.808e-07
3.7154e-06 9.06813e-07 -7.38944e-07
3.10396e-06 1.5046e-06 -5.84352e-07
3.37329e-06 4.91848e-06 -4.35258e-06
3.69856e-07 2.12373e-06 -1.30523e-06
0.00207342 0.000795799 0.000342621
4.16381e-07 5.25469e-06 -3.45553e-06
-4.59949e-07 1.09364e-07 -6.88997e-08
-1.0784e-07 6.2892e-06 -5.16209e-06
-6.20446e-06 6.5916e-06 -5.334e-06
-4.5064e-06 3.48013e-06 -2.72985e-06
-1.53503e-07 3.22449e-06 -2.46754e-06
-9.01691e-06 1.6191e-05 -1.16372e-05
-4.1644e-06 1.51549e-06 -1.21191e-06
0.000153335 -0.00137436 0.000586537
-1.41879e-06 1.1148e-08 -1.71994e-08
0.000126042 -0.000949698 0.000593085
-0.00149059 -0.000475709 4.61011e-05
-0.000438227 0.00042514 -0.000170049
-2.6288e-06 7.25658e-07 -5.81632e-07
8.89568e-07 1.89819e-07 -1.37583e-07
-2.22826e-06 5.8286e-06 -4.36493e-06
1.54843e-06 2.98803e-06 -3.42171e-06
7.63085e-06 5.3165e-06 -3.98203e-06
4.60173e-05 4.35415e-05 -2.97123e-05
6.4086e-06 8.2495e-06 -4.90717e-06
7.6556e-06 1.28401e-05 -7.55601e-06
7.23148e-07 8.06481e-06 -5.44412e-06
-3.95635e-05 0.000245175 9.07239e-05
-1.05003e-05 1.31675e-05 -9.04948e-06
-9.71867e-08 7.64687e-06 -4.69065e-06
-4.08307e-06 1.13998e-05 -8.14682e-06
-1.54164e-06 5.5124e-07 -2.93277e-07
-1.49149e-05 1.48189e-05 -1.03197e-05
-1.88291e-07 6.56026e-07 -3.3956e-07
4.96953e-06 7.562e-06 -4.84395e-06
-2.12237e-05 1.41937e-05 -9.46736e-06
1.42691e-05 1.43207e-05 -9.17342e-06
1.67331e-05 1.44485e-05 -8.75666e-06
9.1153e-07 4.71954e-08 -6.78134e-08
-1.16429e-05 6.90803e-06 -5.175e-06
-2.18932e-05 1.02685e-05 -7.51798e-06
-1.46459e-05 9.97958e-06 -8.09851e-06
-0.00118668 -0.000392226 -0.00118092
1.99308e-06 8.7277e-06 -5.67778e-06
1.4093e-06 6.64718e-07 -5.72301e-07
-6.69929e-06 7.19461e-06 -5.03893e-06
-1.01953e-05 2.08986e-05 -1.46477e-05
-1.67177e-05 6.69628e-06 -4.55453e-06
8.09685e-06 5.6148e-06 -3.34131e-06
1.0315e-05 1.77816e-05 -1.18596e-05
7.0766e-06 1.76159e-05 -1.23311e-05
2.11467e-06 3.14404e-07 -1.70476e-07
0.000174581 7.55487e-05 0.000295289
9.79932e-07 1.51129e-07 -2.02397e-08
-2.01167e-06 6.84795e-06 -4.94161e-06
-1.44241e-05 5.56946e-06 -4.19805e-06
-9.31902e-05 -0.000922997 -0.000705637
1.37753e-07 9.02401e-08 -6.82508e-08
-1.32735e-05 5.85617e-06 -3.22094e-06
-3.63038e-06 4.88342e-06 -3.54508e-06
-3.40714e-06 9.00712e-06 -6.68457e-06
9.8673e-06 4.90341e-06 -3.5377e-06
6.84707e-06 6.37672e-06 -5.14882e-06
0.00115668 -0.0013437 -7.58533e-05
-6.2861e-07 3.00396e-08 -4.56799e-08
3.02204e-05 0.000233984 -0.000138868
3.50886e-06 6.52254e-06 -4.09202e-06
-4.85796e-06 7.10984e-06 -5.02085e-06
-1.49833e-05 1.81653e-05 -1.26932e-05
6.61137e-06 1.29993e-05 -1.011e-05
7.92804e-06 5.24966e-06 -3.68918e-06
6.5043e-06 5.39128e-06 -3.44347e-06
7.70246e-06 9.9547e-06 -6.75308e-06
-0.00136179 0.000424573 -1.32448e-05
1.62021e-05 8.12545e-06 -5.1338e-06
3.36917e-06 2.38546e-06 -1.1248e-06
-1.55569e-05 3.04294e-05 -2.08561e-05
-2.84216e-06 1.22344e-05 -8.31028e-06
-2.11263e-06 1.10329e-06 -6.24407e-07
-5.69957e-06 1.16463e-06 -5.87391e-07
4.82421e-07 7.79181e-08 -5.41267e-08
-0.000540396 -0.0009947 -6.7676e-06
1.02348e-08 5.24259e-06 -3.78737e-06
-9.10748e-06 5.0574e-06 -3.2489e-06
-5.93697e-07 4.86151e-06 -3.80744e-06
0.00057764 -0.00117558 0.000310553
-0.00167479 0.000214972 0.000719653
2.34286e-06 3.29738e-06 -2.83896e-06
6.05662e-06 1.26753e-05 -8.87782e-06
3.05327e-06 1.43403e-06 -6.48403e-07
-1.51326e-06 6.30767e-07 -4.52124e-07
-9.03948e-08 5.51035e-06 -3.49243e-06
1.02161e-06 1.73649e-06 -1.59294e-06
-5.53694e-07 8.17832e-06 -6.10527e-06
7.01745e-07 5.47921e-06 -4.26339e-06
-2.94376e-06 6.75106e-06 -4.6836e-06
-3.71408e-06 8.68318e-07 -9.68789e-07
-1.04422e-05 5.54336e-06 -4.04783e-06
-7.3738e-06 3.8784e-06 -2.64904e-06
-5.43416e-06 2.53956e-06 -2.05268e-06
-1.00038e-05 1.05372e-05 -7.53122e-06
2.36312e-06 5.12907e-06 -3.20415e-06
2.37302e-06 8.46298e-07 -1.05554e-06
3.00254e-06 1.85532e-06 -2.14551e-06
1.79171e-06 8.22767e-07 -8.79411e-07
-2.9985e-06 4.45916e-06 -3.39955e-06
3.0624e-06 8.73376e-07 -3.64297e-07
-4.05107e-06 1.05403e-05 -7.30945e-06
0.000444923 -0.000717283 -0.000602532
6.34934e-06 1.25118e-05 -9.15692e-06
-5.64318e-06 9.66965e-06 -6.63234e-06
-1.07698e-06 1.30302e-05 -8.55506e-06
0.000370167 -0.00102031 0.000589923
6.56981e-08 4.64136e-07 -3.7666e-07
7.86415e-06 5.09603e-06 -3.24861e-06
1.11965e-05 9.76654e-06 -7.09357e-06
5.31241e-06 6.60888e-06 -4.96345e-06
-6.49177e-06 4.21216e-06 -2.53337e-06
-7.83869e-06 6.56967e-06 -4.21498e-06
-6.43994e-06 3.29699e-06 -1.90304e-06
-5.227e-06 4.91528e-06 -3.3196e-06
9.94278e-07 5.01679e-07 -8.46921e-07
-3.32458e-06 1.72334e-06 -1.62388e-06
1.87763e-06 8.70898e-07 -3.37977e-07
2.7319e-06 1.07847e-06 -4.52571e-07
-3.01187e-06 8.16117e-06 -5.50429e-06
-1.06804e-05 3.26126e-06 -2.55112e-06
-4.3166e-07 8.1276e-06 -5.66058e-06
-5.46321e-06 3.91674e-06 -3.01547e-06
-1.0908e-05 7.3004e-06 -4.93994e-06
0.000603677 -0.000713675 0.000135558
-1.51911e-06 1.08769e-07 -5.83556e-08
3.90871e-05 0.000614381 0.000338369
-5.58512e-06 1.5891e-06 -1.21941e-06
-8.74367e-06 2.65421e-06 -1.6648e-06
-5.48922e-06 5.92855e-06 -4.77055e-06
-3.8887e-06 4.59213e-06 -3.30403e-06
5.3374e-06 4.60394e-06 -2.41088e-06
5.52927e-06 3.65506e-06 -1.88298e-06
-1.10867e-06 6.63139e-08 1.7695e-10
-1.56822e-06 6.35949e-06 -4.19882e-06
2.24838e-06 8.14951e-06 -5.87376e-06
-8.78203e-06 6.19075e-06 -4.04892e-06
5.43626e-06 3.2361e-06 -2.72309e-06
1.4753e-06 8.62963e-07 -4.43532e-07
5.93596e-06 7.97664e-06 -5.62908e-06
-6.16277e-07 1.13565e-06 -8.75294e-07
-3.20629e-06 3.09355e-06 -2.45642e-06
-9.48502e-06 9.15879e-06 -6.62068e-06
-3.61539e-06 2.73553e-06 -1.89333e-06
1.50273e-06 1.0353e-05 -7.33069e-06
-6.24584e-06 2.58711e-06 -1.52258e-06
7.70781e-06 7.07653e-06 -4.24416e-06
-3.66457e-06 8.49206e-07 -3.66982e-07
-0.000973149 -0.000240099 0.000419991
9.3555e-07 1.57291e-06 -1.5627e-06
5.643e-06 3.03838e-06 -1.65288e-06
-2.82391e-06 3.05295e-06 -2.02668e-06
-4.59578e-06 1.89459e-06 -9.53404e-07
3.85584e-06 2.18609e-06 -9.29461e-07
1.13883e-07 2.70319e-06 -2.03149e-06
0.00104047 -0.000974351 2.79584e-05
-0.000549457 -7.45239e-05 0.000217825
-4.29728e-06 1.88093e-06 -1.85536e-06
-7.58675e-06 5.86834e-06 -4.18765e-06
2.10506e-06 2.23137e-06 -1.26439e-06
-1.5188e-06 7.92849e-06 -5.62309e-06
-3.67861e-06 2.77883e-06 -1.85488e-06
3.88474e-06 3.124e-06 -2.98266e-06
-5.4729e-06 9.27437e-06 -6.36302e-06
0.000643534 -2.52843e-05 0.000493221
-8.88341e-06 6.52981e-06 -4.68513e-06
2.73045e-07 5.73082e-07 -3.33066e-07
0.000752408 -0.000706385 -3.65527e-06
-5.33874e-07 1.02417e-06 -8.37457e-07
0.00146734 -0.000142827 -0.000318897
-7.88363e-06 8.58959e-06 -6.02145e-06
-4.71381e-06 5.13595e-06 -3.6124e-06
1.06137e-05 -0.000426194 0.000160236
-1.60305e-06 2.66151e-06 -1.91343e-06
-0.000249003 -0.000303024 -0.000243094
1.46234e-06 2.82985e-06 -1.81661e-06
-1.81982e-06 2.6193e-06 -1.87549e-06
-5.69265e-06 1.64757e-06 -1.56574e-06
2.59131e-06 9.20728e-06 -6.34312e-06
4.256e-07 1.16076e-06 -6.98204e-07
-0.000890788 -0.000881602 -0.000138386
2.1308e-06 3.28803e-06 -1.9992e-06
2.35408e-06 9.47961e-07 -6.15742e-07
2.44892e-06 2.79127e-06 -1.83389e-06
-0.000785156 -0.000737179 -2.31371e-05
-9.20855e-06 5.68869e-06 -3.91456e-06
-8.33127e-06 7.32776e-06 -5.07115e-06
2.0159e-06 2.88505e-06 -1.88155e-06
-1.71996e-06 2.75062e-06 -1.9064e-06
-4.7592e-08 1.93252e-07 -2.3466e-08
0.000111768 0.00098582 -0.000536582
-0.000298253 0.000229966 0.000260909
-0.000142847 -0.000285838 0.000254293
-8.73454e-06 5.61093e-06 -3.96116e-06
-2.51417e-06 2.31338e-06 -1.59482e-06
-4.93465e-06 1.73671e-06 -8.10599e-07
7.00075e-07 2.8036e-06 -2.15767e-06
0.000128879 -0.000299646 0.000220708
6.91315e-05 0.000629399 0.000216697
7.61896e-07 1.56056e-07 -2.50849e-08
9.83054e-07 1.38441e-07 -8.69091e-08
-2.99684e-06 5.59315e-06 -4.22815e-06
-5.24676e-08 1.38513e-07 -6.15173e-08
1.35615e-05 0.000667211 -0.00026882
-1.73921e-06 6.79895e-06 -5.08894e-06
-3.30042e-06 1.33551e-06 -9.28066e-07
1.09617e-06 9.43414e-06 -6.02836e-06