# vtk DataFile Version 4.2
vtk output
ASCII
DATASET UNSTRUCTURED_GRID

POINTS 343 double
0.00150471 0.00421196 -1.66309e-05
0.00290902 0.0050162 0.00214363
0 0.00419538 0.00112517
0.00259596 0.00198462 0.00191371
0.00689092 0.00249269 0.0049588
0.00688219 0.00392018 0.00634054
0.0100401 0.0049294 0.00489052
0.00823268 0.00496933 0.00358405
0.0090459 0.00341518 0.00684873
0.00663452 0.00508212 0.00492826
0.00556882 0.0011868 0.00997186
0.00703274 0.00216923 0.00786015
0.00559958 5.70339e-05 0.00828162
0.00270624 0.00203222 0.00800474
0.00570119 0.00260239 0.00997084
0.00915905 0.0065935 0.0068827
0.00846345 0.00631312 0.00509438
0.00303813 0.00221852 0.00511518
0 0.00143586 0.00417514
0.00214301 0.00348918 0.00401526
0.00903915 0.00331942 0.00303358
0.0102307 0.00235495 0.00495482
0 0.00270918 0.00154168
0.00552635 0.00149747 -8.88732e-05
0.00666275 0.00227306 0.00209887
0.00527255 0.00359278 0.00152524
0.0018153 1.88433e-05 0.00404179
0.00558305 5.6208e-05 0.00160702
0.00348167 0.00699371 -5.11986e-05
0.0025885 0.00808137 0.00191586
0.00541901 0.0063187 0.0015645
0.0104714 0.00817952 0.00794216
0.0104764 0.00498025 0.00796877
0.0109923 0.0062675 0.00584702
0.0129589 0.00909506 0.00403306
0.00993196 0.00781335 0.00485468
0.0111371 0.0102254 0.00402886
0.0104189 0.00816675 0.00184804
0.00472956 0.00309404 0.00691558
0.00590747 0.00373559 0.00828597
0.00521554 0.00166194 0.00591885
0.00661374 0.00776668 0.00763008
0.00266189 0.00803622 0.0079627
0.0037441 0.010053 0.00708997
0.00519255 0.00847455 0.00590609
0 0.00695361 0.00262895
0.00220591 0.00626423 0.00406388
0 0.0040177 0.00850214
0.00310141 0.00502137 0.00763012
0.00192127 0.00419602 0.009981
0.00940808 0.00727842 0.0099707
0.00807537 0.00609146 0.00837562
0.00274432 0.00797063 0.00471244
0.004061 0.00698939 0.0064248
0.00212682 0.00610186 0.00590394
0.0130101 0.00601478 0.00824717
0 0.00718191 0.00711644
0.0021167 0.00579798 -2.51679e-05
0 0.00577432 0.00158701
0.0129916 0.0074071 0.007023
0.00381996 0.00339398 0.00997616
0.0130437 0.00159606 0.00401389
0.0105921 0.00208903 0.00180647
0.0110296 0.00366907 0.00385761
0.00499361 0.00170693 0.00407418
0.00201478 0.0100228 0.00579386
0.00377744 3.74005e-05 0.00709058
0.00808846 0.00428369 0.00833278
0.0129846 0.00750716 0.00403611
0.0112491 0.000115316 0.00402837
0.00444174 0.00292384 -6.85223e-05
0.00360644 0.00158012 0.00997752
0.00378725 3.65864e-05 0.00279095
0.00637365 0.00527732 0.00750959
0.00422815 0.00319663 0.00312182
0 0.00849157 0.00581511
0.00647587 0.00375301 0.00370711
0.00206123 0.00273237 -2.4023e-05
0.00761346 0.00844146 0.00997511
0.0078338 0.0101359 0.00846547
0.00554862 0.0100851 0.00827948
0.0052992 0.00857538 0.00997548
0.0129708 0.00873112 0.00569265
0.0041953 0.00688341 0.00310428
0 0.00748929 0.00137438
0.00183246 0.00750802 -2.06417e-05
0 0.00287343 0.00335182
0 0.00580816 0.00831736
0 0.00429792 0.00253898
0.00337063 0.00433693 -4.89249e-05
0.00192011 0.00583927 0.00998128
0.00685557 0.00656604 0.00634075
0.00479098 0.00656697 0.00819993
0.00915714 0.00273619 0.00996711
0.0105583 0.0020843 0.00797955
0.00920309 9.50371e-05 0.00294917
0.00797286 0.00175373 0.00350625
0.0130272 0.00304732 0.00317125
0 0.00140616 0.00256446
0.00837959 0.00835902 0.00635201
0.00767454 0.00152126 -0.000134588
0.00796641 0.00364986 0.00147345
0.00417858 0.0100608 0.00578278
0.0111373 0.010224 0.0057279
0.00340812 0.00144329 -4.9493e-05
0.00789973 7.84598e-05 0.00136629
0.00824939 0.00841835 0.00350836
0.011248 0.000115274 0.00573111
0.00822222 0.00176539 0.00629853
0.00188338 0.00258438 0.00998168
0.00930252 0.00733035 -0.000169997
0.00680954 0.00778765 0.00206671
0.0078241 0.00620179 0.00147417
0 0.00686719 0.00578184
0.0130332 0.00156537 0.00236948
0.0023808 0.00363649 0.00638295
0.012954 0.00872846 0.00243046
0.0110075 0.00635915 0.00399486
0.00781588 0.010141 0.00136507
0.00921126 9.30766e-05 0.00686345
0.0130491 0.00159683 0.00570105
0.0110197 0.00371882 0.00596375
0.00202353 2.13812e-05 0.00579473
0 0.0013659 0.00748679
0.00183732 1.8953e-05 0.00750903
0.0129964 0.00709214 0.00565665
0.0076124 0.00861262 -0.000139062
0 0.0075208 0.00859127
0.00182653 0.00750376 0.00998281
0.00560247 0.00828339 0.0035611
0.0111787 0.0102237 0.00744116
0.0129685 0.00887141 0.00744205
0.00763838 0.00167314 0.00997157
0.00954587 0.00431233 0.00996747
0 0.0057735 0.00666667
0.00182995 0.0100211 0.00750836
0 0.00863025 0.00752641
0.0112724 0.000116755 0.00233486
0.012979 0.00718384 0.00243605
0.0110534 0.00651896 0.00198642
0.0111346 0.00599265 0.00996682
0.00985885 0.00149096 0.0099679
0.0112887 0.000117193 0.00744344
0.0130493 0.00152576 0.00740291
0 0.00143551 0.00581971
0.00791958 7.90947e-05 0.00846653
0.0056127 5.50937e-05 0.00333002
0.0104059 0.00485536 0.00186565
0.0130085 0.00448591 0.00233954
0.00557657 0.0100892 0.00661837
0.00375176 0.0100544 0.0027891
0.00176256 1.78343e-05 0.00240052
0 0.00727418 0.00419576
0.0130104 0.00597722 0.00656401
0.00910191 0.0101724 0.00295066
0.00981086 0.00880331 0.00996936
0 0.00574334 0.00336387
0 0.0043297 0.00416652
0.00902678 0.00590933 0.00997075
0.0130378 0.00319494 0.00682016
0.00563319 5.55899e-05 0.00662074
0.00328426 0.0100467 0.00858421
0.00982988 0.00148004 -0.00017762
0.00760209 0.00677081 0.0099732
0.0129854 0.00774704 0.00852669
0.0112363 0.00774179 0.00996754
0.00908712 0.0031326 -0.0001633
0.00444972 0.00579551 -6.97208e-05
0.00980773 0.00880249 -0.00018021
0.00978139 0.0101926 0.00122318
0.00758911 0.00697651 -0.000137029
0.00916083 0.00650777 0.00290116
0.00988759 0.000102929 0.00122164
0.00383114 0.00504051 0.00997635
0.00573117 0.00589923 0.00997458
0.00573778 0.00423134 0.00997279
0.00980783 0.0101857 0.00857025
0.00331136 3.2282e-05 0.00858363
0.0130012 0.005945 0.00318318
0 0.00302218 0.00691532
0.013029 0.00419917 0.00843536
0.011107 0.00416987 -0.000208078
0.013015 0.00288269 0.0013232
0 0.00244495 0.00857025
0.0032417 0.00860934 0.00998002
0.00990707 0.000103804 0.00857203
0.0111349 0.00276234 0.0099665
0.0115824 0.00435292 0.0099656
0.00745079 0.0101298 0.00576653
0.00685371 0.00767978 0.00496005
0.00740988 0.0101305 0.00412595
0.00911549 0.0101689 0.00686194
0.00400808 0.00695749 0.00997761
0.00550701 0.00439554 -9.21104e-05
0.0037931 3.88035e-05 0.0043646
0.00421749 4.18446e-05 0.00578376
0.0129962 0.00438312 0.000899112
0.00480849 0.00840264 0.00151879
0.0130196 0.00451929 0.00400799
0.008743 0.00589787 -0.000159552
0.0111596 0.010228 0.00233839
0 0.00848692 0.00262374
0.00180494 0.01002 0.0040409
0 0.00885053 0.00419359
0.00550966 0.00893247 -9.38807e-05
0.00552991 0.0100904 0.00160593
0.00662017 0.00487313 0.00228208
0.00946704 0.00465096 -0.00017308
0.00748549 7.54834e-05 0.00412292
0.00752689 7.56577e-05 0.00576655
0.00175141 0.0100201 0.00240009
0.0112087 0.00258608 -0.000209321
0.0130238 0.00471152 0.00713089
0.00929285 0.0101769 0.00489962
0.00759042 0.00345439 0.00996961
0.00328325 3.03719e-05 0.0013153
0.0130408 0.00261311 0.0085049
0.00320317 0.0048273 0.00496561
0.00767721 0.00442658 -0.000137215
0.0108543 0.00597828 -0.000201703
0.00719903 0.0101219 0.00716538
0.0130246 0.00451903 0.00571174
0.00708948 0.0101235 0.00267594
0.00939417 9.46655e-05 0.00489792
0.00375941 0.0100535 0.00436272
0 0.00452174 0.00721958
0.00596899 0.00729754 0.00997531
0.00727405 7.2759e-05 0.00717027
0.00480335 0.00513011 0.00354248
0.00561133 0.0100924 0.00494811
0.00566922 5.42999e-05 0.00494903
0.00489434 0.00527338 0.0061248
0 0.005744 0.00499998
0 0.00433013 0.00583333
0.00658548 0.00582841 -0.000115899
0.00659895 0.00642476 0.00346936
0.00716123 7.22032e-05 0.00267533
0.013009 0.00594335 0.00485988
0.00491578 0.00646532 0.00479043
0.0075802 0.00509444 0.00997062
0.0129856 0.00597951 0.00136774
0 0.00666667 0
0.0111762 0.00771247 -0.000208601
0.00442252 4.25171e-05 -6.68164e-05
0 0.01 0.00666667
0.00655998 0.0101123 0.00997
0 0.00288419 0.00499914
0.0129595 0.00772549 0.00115026
0.0129563 0.00688638 -0.000240875
0 0.005 0.01
0.00660043 0.00296022 -0.000113049
0 0.005 0
0.0130404 0.000130497 0.00315327
0.0129356 0.0102772 0.0065661
0.00552698 0.00734715 -9.42258e-05
0.0130361 0.00305383 0.00485906
0.00660649 6.26607e-05 -0.000108311
0 0 0.00666667
0.00507012 0.00367457 0.00517346
0.00662595 6.74245e-05 0.0099716
0.0130515 0.000131152 0.00656807
0 0 0.005
0.0113859 0.0102364 0.00102346
0.0129362 0.00902953 0.000995016
0.0130483 0.000130692 0.00486184
0.0129736 0.00519809 -0.000243525
0.00163392 0.00123901 -1.84481e-05
0 0.00122008 0.00122008
0 0.00333333 0.01
0 0.00666667 0.01
0.0113913 0.00899447 -0.000212918
0.012925 0.0102795 0.00315775
0.00555803 0.0100913 0.00333077
0.0129893 0.00688219 0.00996394
0 0.00333333 0
0 0.00122008 0.00877992
0.0016359 1.68135e-05 0.00876423
0.001635 0.00123766 0.00998419
0.0114156 0.0102295 0.00872907
0.00163116 0.00879705 0.00998488
0 0.00877992 0.00877992
0.0129654 0.00902457 0.00871881
0.00868459 0.0101676 -0.000154407
0.0130242 0.00137603 0.000996571
0.00162855 0.0100199 0.00876278
0.0114343 0.00898951 0.00996692
0.0130098 0.00519551 0.00996348
0 0 0.00333333
0.00877718 8.47034e-05 -0.000151926
0.0115004 0.000119362 0.00102156
0.00162417 1.62287e-05 0.00119297
0 0.00877992 0.00122008
0.0016254 0.00879744 -1.87541e-05
0.00161292 0.0100196 0.00119371
0.0130499 0.00137779 0.00872064
0.0115153 0.00135669 0.00996675
0.00880262 8.93294e-05 0.00996966
0.0114825 0.0013531 -0.000214174
0.0115254 0.000121423 0.00873262
0.012991 0.00351232 -0.000244071
0.00439573 0.0100691 0.00997283
0.00325256 0.0100466 0.00131455
0.00871125 0.0101621 0.00996637
0.0130264 0.00350585 0.00996229
0 0.01 0.005
0.00346633 0.00853032 -5.12814e-05
0.0129324 0.0102793 0.00485679
0 0.01 0.00333333
0 0.00166667 0
0.0130296 0.00013299 0.001452
0 0.00166667 0.01
0 0.00833333 0
0.012928 0.00857931 -0.000244994
0.0130519 0.000134853 0.00826745
0.0129131 0.0102788 0.00145204
0.0129371 0.0102744 0.00826434
0.00221365 0.0100325 0.00998028
0 0.01 0.00833333
0.0108063 0.0102253 -0.000196221
0.0109189 0.000109805 -0.000197466
0.0109499 0.000115849 0.00996668
0.0108448 0.0102169 0.00996435
0 0 0.00833333
0.0129664 0.00857046 0.00996326
0.00222667 2.01697e-05 -2.70019e-05
0 0 0.00166667
0.00437933 0.0100682 -6.94162e-05
0.0130405 0.00183113 0.00996273
0.0130062 0.00182851 -0.000242984
0.00222902 2.22035e-05 0.00998184
0.00220621 0.01003 -2.87181e-05
0 0.01 0.00166667
0.012939 0.0102729 0.0099596
0 0 0.01
0.0128984 0.0102784 -0.000240913
0.0130532 0.000138034 0.00996276
0 0.01 0.01
0.0130183 0.000131877 -0.000239901
0 0.01 0
0 0 0
0.00653973 0.0101163 -0.000113304
0.00443335 4.65961e-05 0.00997716
0 0.00833333 0.01

CELLS 343 686
1 0
1 1
1 2
1 3
1 4
1 5
1 6
1 7
1 8
1 9
1 10
1 11
1 12
1 13
1 14
1 15
1 16
1 17
1 18
1 19
1 20
1 21
1 22
1 23
1 24
1 25
1 26
1 27
1 28
1 29
1 30
1 31
1 32
1 33
1 34
1 35
1 36
1 37
1 38
1 39
1 40
1 41
1 42
1 43
1 44
1 45
1 46
1 47
1 48
1 49
1 50
1 51
1 52
1 53
1 54
1 55
1 56
1 57
1 58
1 59
1 60
1 61
1 62
1 63
1 64
1 65
1 66
1 67
1 68
1 69
1 70
1 71
1 72
1 73
1 74
1 75
1 76
1 77
1 78
1 79
1 80
1 81
1 82
1 83
1 84
1 85
1 86
1 87
1 88
1 89
1 90
1 91
1 92
1 93
1 94
1 95
1 96
1 97
1 98
1 99
1 100
1 101
1 102
1 103
1 104
1 105
1 106
1 107
1 108
1 109
1 110
1 111
1 112
1 113
1 114
1 115
1 116
1 117
1 118
1 119
1 120
1 121
1 122
1 123
1 124
1 125
1 126
1 127
1 128
1 129
1 130
1 131
1 132
1 133
1 134
1 135
1 136
1 137
1 138
1 139
1 140
1 141
1 142
1 143
1 144
1 145
1 146
1 147
1 148
1 149
1 150
1 151
1 152
1 153
1 154
1 155
1 156
1 157
1 158
1 159
1 160
1 161
1 162
1 163
1 164
1 165
1 166
1 167
1 168
1 169
1 170
1 171
1 172
1 173
1 174
1 175
1 176
1 177
1 178
1 179
1 180
1 181
1 182
1 183
1 184
1 185
1 186
1 187
1 188
1 189
1 190
1 191
1 192
1 193
1 194
1 195
1 196
1 197
1 198
1 199
1 200
1 201
1 202
1 203
1 204
1 205
1 206
1 207
1 208
1 209
1 210
1 211
1 212
1 213
1 214
1 215
1 216
1 217
1 218
1 219
1 220
1 221
1 222
1 223
1 224
1 225
1 226
1 227
1 228
1 229
1 230
1 231
1 232
1 233
1 234
1 235
1 236
1 237
1 238
1 239
1 240
1 241
1 242
1 243
1 244
1 245
1 246
1 247
1 248
1 249
1 250
1 251
1 252
1 253
1 254
1 255
1 256
1 257
1 258
1 259
1 260
1 261
1 262
1 263
1 264
1 265
1 266
1 267
1 268
1 269
1 270
1 271
1 272
1 273
1 274
1 275
1 276
1 277
1 278
1 279
1 280
1 281
1 282
1 283
1 284
1 285
1 286
1 287
1 288
1 289
1 290
1 291
1 292
1 293
1 294
1 295
1 296
1 297
1 298
1 299
1 300
1 301
1 302
1 303
1 304
1 305
1 306
1 307
1 308
1 309
1 310
1 311
1 312
1 313
1 314
1 315
1 316
1 317
1 318
1 319
1 320
1 321
1 322
1 323
1 324
1 325
1 326
1 327
1 328
1 329
1 330
1 331
1 332
1 333
1 334
1 335
1 336
1 337
1 338
1 339
1 340
1 341
1 342

CELL_TYPES 343
1
1
1
1
1
1
1
1
1
1
1
1
1
1
1
1
1
1
1
1
1
1
1
1
1
1
1
1
1
1
1
1
1
1
1
1
1
1
1
1
1
1
1
1
1
1
1
1
1
1
1
1
1
1
1
1
1
1
1
1
1
1
1
1
1
1
1
1
1
1
1
1
1
1
1
1
1
1
1
1
1
1
1
1
1
1
1
1
1
1
1
1
1
1
1
1
1
1
1
1
1
1
1
1
1
1
1
1
1
1
1
1
1
1
1
1
1
1
1
1
1
1
1
1
1
1
1
1
1
1
1
1
1
1
1
1
1
1
1
1
1
1
1
1
1
1
1
1
1
1
1
1
1
1
1
1
1
1
1
1
1
1
1
1
1
1
1
1
1
1
1
1
1
1
1
1
1
1
1
1
1
1
1
1
1
1
1
1
1
1
1
1
1
1
1
1
1
1
1
1
1
1
1
1
1
1
1
1
1
1
1
1
1
1
1
1
1
1
1
1
1
1
1
1
1
1
1
1
1
1
1
1
1
1
1
1
1
1
1
1
1
1
1
1
1
1
1
1
1
1
1
1
1
1
1
1
1
1
1
1
1
1
1
1
1
1
1
1
1
1
1
1
1
1
1
1
1
1
1
1
1
1
1
1
1
1
1
1
1
1
1
1
1
1
1
1
1
1
1
1
1
1
1
1
1
1
1
1
1
1
1
1
1
1
1
1
1
1
1
1
1
1
1
1
1
1
1
1
1
1
1
1
1
1
1
1
1
1
1
1
1
1
1

POINT_DATA 343
FIELD FieldData 8

NodeID_(#) 1 343 int
0
1
2
3
4
5
6
7
8
9
10
11
12
13
14
15
16
17
18
19
20
21
22
23
24
25
26
27
28
29
30
31
32
33
34
35
36
37
38
39
40
41
42
43
44
45
46
47
48
49
50
51
52
53
54
55
56
57
58
59
60
61
62
63
64
65
66
67
68
69
70
71
72
73
74
75
76
77
78
79
80
81
82
83
84
85
86
87
88
89
90
91
92
93
94
95
96
97
98
99
100
101
102
103
104
105
106
107
108
109
110
111
112
113
114
115
116
117
118
119
120
121
122
123
124
125
126
127
128
129
130
131
132
133
134
135
136
137
138
139
140
141
142
143
144
145
146
147
148
149
150
151
152
153
154
155
156
157
158
159
160
161
162
163
164
165
166
167
168
169
170
171
172
173
174
175
176
177
178
179
180
181
182
183
184
185
186
187
188
189
190
191
192
193
194
195
196
197
198
199
200
201
202
203
204
205
206
207
208
209
210
211
212
213
214
215
216
217
218
219
220
221
222
223
224
225
226
227
228
229
230
231
232
233
234
235
236
237
238
239
240
241
242
243
244
245
246
247
248
249
250
251
252
253
254
255
256
257
258
259
260
261
262
263
264
265
266
267
268
269
270
271
272
273
274
275
276
277
278
279
280
281
282
283
284
285
286
287
288
289
290
291
292
293
294
295
296
297
298
299
300
301
302
303
304
305
306
307
308
309
310
311
312
313
314
315
316
317
318
319
320
321
322
323
324
325
326
327
328
329
330
331
332
333
334
335
336
337
338
339
340
341
342

Component_(#) 1 343 int
0
0
0
0
0
0
0
0
0
0
0
0
0
0
0
0
0
0
0
0
0
0
0
0
0
0
0
0
0
0
0
0
0
0
0
0
0
0
0
0
0
0
0
0
0
0
0
0
0
0
0
0
0
0
0
0
0
0
0
0
0
0
0
0
0
0
0
0
0
0
0
0
0
0
0
0
0
0
0
0
0
0
0
0
0
0
0
0
0
0
0
0
0
0
0
0
0
0
0
0
0
0
0
0
0
0
0
0
0
0
0
0
0
0
0
0
0
0
0
0
0
0
0
0
0
0
0
0
0
0
0
0
0
0
0
0
0
0
0
0
0
0
0
0
0
0
0
0
0
0
0
0
0
0
0
0
0
0
0
0
0
0
0
0
0
0
0
0
0
0
0
0
0
0
0
0
0
0
0
0
0
0
0
0
0
0
0
0
0
0
0
0
0
0
0
0
0
0
0
0
0
0
0
0
0
0
0
0
0
0
0
0
0
0
0
0
0
0
0
0
0
0
0
0
0
0
0
0
0
0
0
0
0
0
0
0
0
0
0
0
0
0
0
0
0
0
0
0
0
0
0
0
0
0
0
0
0
0
0
0
0
0
0
0
0
0
0
0
0
0
0
0
0
0
0
0
0
0
0
0
0
0
0
0
0
0
0
0
0
0
0
0
0
0
0
0
0
0
0
0
0
0
0
0
0
0
0
0
0
0
0
0
0
0
0
0
0
0
0
0
0
0
0
0
0
0
0
0
0
0
0
0
0
0
0
0
0
0
0
0
0
0
0

NodalMass_(kg) 1 343 double
3.15563e-06
1.41304e-05
2.20912e-06
1.71484e-05
8.42e-06
9.09306e-06
9.93033e-06
7.52198e-06
6.81096e-06
5.58223e-06
3.10888e-06
1.07575e-05
4.87011e-06
1.64955e-05
3.0246e-06
8.05984e-06
6.703e-06
1.0877e-05
4.18978e-06
8.16106e-06
6.14143e-06
1.17902e-05
2.23114e-06
4.25176e-06
1.09915e-05
7.41467e-06
4.21871e-06
3.92484e-06
3.08766e-06
1.31268e-05
7.72627e-06
1.65404e-05
1.19037e-05
7.29666e-06
3.81683e-06
1.11001e-05
3.81317e-06
1.39137e-05
6.37414e-06
8.00975e-06
7.6712e-06
1.18847e-05
1.6399e-05
2.78633e-06
8.93599e-06
2.58087e-06
7.57362e-06
4.23241e-06
1.31286e-05
3.80168e-06
2.7746e-06
7.16776e-06
1.21307e-05
5.11765e-06
8.19728e-06
4.58094e-06
2.79503e-06
3.26126e-06
4.12443e-06
2.11915e-06
3.35177e-06
3.61669e-06
1.56838e-05
7.33679e-06
8.24695e-06
5.00369e-06
2.82625e-06
7.20276e-06
3.26815e-06
4.18751e-06
2.02785e-06
2.42152e-06
3.11835e-06
5.97459e-06
5.87101e-06
4.09374e-06
5.45463e-06
2.28825e-06
4.49759e-06
4.38192e-06
4.50892e-06
4.39234e-06
4.27273e-06
5.32031e-06
1.53201e-06
2.38869e-06
2.02885e-06
4.38798e-06
3.17972e-06
3.14298e-06
4.61567e-06
5.87645e-06
8.18088e-06
2.48341e-06
1.53815e-05
3.49683e-06
7.35227e-06
2.01314e-06
2.0408e-06
7.98183e-06
4.41293e-06
7.1389e-06
1.20123e-06
5.03343e-06
1.61257e-06
4.12601e-06
8.73748e-06
4.37849e-06
7.97173e-06
2.13557e-06
3.38137e-06
9.48623e-06
7.40262e-06
1.80226e-06
2.10222e-06
7.98889e-06
1.87983e-06
7.44814e-06
4.19782e-06
2.37156e-06
4.31705e-06
6.06441e-06
4.30905e-06
2.16843e-06
1.8986e-06
1.81294e-06
3.89762e-06
2.44299e-06
1.65628e-06
8.01374e-06
1.64513e-06
2.3931e-06
3.01363e-06
2.99431e-06
1.36541e-06
1.87293e-06
2.09622e-06
1.94762e-06
1.87618e-06
6.37913e-06
4.58628e-06
2.02767e-06
1.61999e-06
2.41284e-06
3.8865e-06
4.44973e-06
2.29839e-06
1.17349e-05
3.11811e-06
1.354e-06
3.45063e-06
1.81846e-06
2.9382e-06
1.37381e-06
2.41464e-06
2.10451e-06
2.63927e-06
2.14166e-06
1.7943e-06
3.19976e-06
1.36989e-06
2.43489e-06
2.08158e-06
1.3601e-06
2.17203e-06
1.89924e-06
3.16996e-06
2.6119e-06
2.37677e-06
1.60225e-06
1.90684e-06
5.49206e-06
1.87878e-06
3.14313e-06
2.97301e-06
1.18454e-06
1.89263e-06
2.04166e-06
2.73572e-06
2.42405e-06
3.23083e-06
3.19752e-06
3.2142e-06
1.94492e-06
1.61196e-06
1.86876e-06
3.22435e-06
2.1114e-06
2.96917e-06
6.15288e-06
2.3097e-06
2.39729e-06
2.38029e-06
2.64508e-06
1.66557e-06
1.82377e-06
2.06583e-06
5.73271e-06
2.08467e-06
2.18324e-06
2.43522e-06
3.1188e-06
3.17316e-06
2.05447e-06
1.9592e-06
3.05718e-06
6.44327e-06
2.08796e-06
2.72615e-06
2.15709e-06
1.86812e-06
2.0028e-06
2.10999e-06
2.88994e-06
2.3222e-06
2.3979e-06
1.97629e-06
6.4127e-06
2.16225e-06
3.29198e-06
2.10223e-06
2.66566e-06
1.94415e-06
2.91865e-06
2.58116e-06
2.11703e-06
2.09534e-06
1.91719e-06
7.06046e-06
2.25203e-06
2.06378e-06
6.28159e-06
2.12147e-06
2.90924e-06
2.12921e-06
6.4487e-06
1.41701e-06
2.0682e-06
6.58062e-06
2.52584e-06
2.39732e-06
7.42191e-07
2.22368e-06
7.06751e-07
7.00657e-07
8.93749e-07
2.53536e-06
2.26535e-06
1.33607e-06
7.84725e-07
2.32303e-06
6.06694e-07
6.68276e-07
6.84307e-07
2.51242e-06
2.31629e-06
7.8367e-07
6.80839e-07
6.22692e-06
6.7471e-07
6.65305e-07
7.01158e-07
1.8232e-06
1.90695e-06
6.86722e-07
7.04792e-07
1.86445e-06
2.28572e-06
6.8045e-07
7.16005e-07
1.82373e-06
6.01079e-07
2.02791e-06
7.4579e-07
5.74423e-07
1.80052e-06
1.454e-06
2.2702e-06
1.80636e-06
2.15356e-06
1.79089e-06
1.79456e-06
6.8231e-07
2.24737e-06
1.45239e-06
1.79556e-06
6.97875e-07
6.24265e-07
6.62717e-07
1.44627e-06
1.40138e-06
2.15258e-06
1.82851e-06
1.3994e-06
1.43932e-06
2.19226e-06
6.97732e-07
1.77726e-06
1.79162e-06
6.54258e-07
7.3397e-07
2.34895e-06
7.10392e-07
6.56982e-07
6.26314e-07
2.18926e-06
6.12493e-07
6.03901e-07
5.92831e-07
5.12031e-07
5.11667e-07
4.9467e-07
4.97016e-07
4.96269e-07
5.33079e-07
4.94191e-07
4.97855e-07
4.86862e-07
4.90626e-07
4.94649e-07
4.94954e-07
4.91922e-07
4.89615e-07
4.96354e-07
4.95189e-07
4.82188e-07
1.10854e-06
5.3299e-07
5.44763e-07
5.36655e-07
5.15417e-07
5.01772e-07
5.53774e-07
5.53774e-07
5.53774e-07
5.53774e-07
5.53774e-07
5.53774e-07
5.50785e-07
5.50785e-07
7.45291e-07
7.11668e-07
4.9897e-07

NodalForce_(N) 3 343 double
-1.20023e-05 -1.4346e-06 8.65435e-07
-0.000106511 -1.61094e-05 1.22995e-05
-0.000858311 -0.00126339 -0.00127864
-0.000130605 -1.55151e-05 1.50116e-05
-0.000227536 -5.78921e-05 3.23749e-05
-0.000233199 -4.98794e-05 3.26076e-05
-0.000345288 -0.000126195 7.88941e-05
-0.000190697 -5.68265e-05 4.15192e-05
-0.000253639 -8.39204e-05 3.87124e-05
-0.000116221 -2.42466e-05 1.97242e-05
-8.05126e-05 -2.93681e-05 -7.23036e-07
-0.000340888 -0.000105624 1.69059e-05
-0.000137831 -4.49587e-05 -3.88248e-06
-0.000159137 -1.91996e-05 7.41278e-06
-7.41306e-05 -2.14646e-05 2.31309e-06
-0.000240963 -8.29084e-05 6.4275e-05
-0.000167642 -5.15097e-05 3.95455e-05
-0.000113196 -9.84347e-06 1.68247e-05
0.00393191 -0.0018395 -0.000386747
-5.24503e-05 -3.85331e-06 6.48802e-06
-0.00019808 -6.5416e-05 3.67525e-05
-0.000505253 -0.000188866 8.42873e-05
0.00247066 0.00341505 0.00319928
-7.70417e-05 -1.43664e-05 5.17268e-06
-0.00025605 -6.5819e-05 4.36818e-05
-0.000110899 -2.23756e-05 2.39468e-05
-2.85332e-05 -1.73153e-06 3.05688e-06
-8.43514e-05 -1.77095e-05 6.99117e-06
-1.83631e-05 -1.97268e-06 5.37408e-06
-7.79135e-05 -5.48327e-06 1.02495e-05
-9.45587e-05 -1.39863e-05 3.0964e-05
-0.000556572 -0.000258344 0.000227634
-0.000501785 -0.000188491 0.000113487
-0.000273151 -0.000110577 7.93131e-05
-0.000144445 -6.90068e-05 6.49127e-05
-0.000293946 -0.000116794 0.000107194
-9.61841e-05 -4.66714e-05 5.73677e-05
-0.000333008 -0.000115898 0.000163385
-0.000112088 -1.60754e-05 9.08936e-06
-0.000185309 -3.59723e-05 1.52759e-05
-0.000167339 -3.86983e-05 1.24677e-05
-0.000228168 -7.65872e-05 5.95454e-05
-0.000119714 -1.78506e-05 1.08681e-05
-2.09393e-05 -8.02853e-06 5.98227e-06
-0.000112846 -3.01501e-05 2.1349e-05
-0.0018369 -0.00270112 0.000351672
-4.5388e-05 -4.46914e-06 2.65016e-06
0.00153632 -0.0023075 -0.000671586
-0.000127108 -3.45503e-06 8.77678e-06
-2.33895e-05 -1.01989e-06 -1.47734e-07
-9.67152e-05 -4.26095e-05 3.01536e-05
-0.00020585 -6.33141e-05 4.59146e-05
-8.62495e-05 -8.11032e-06 4.13454e-06
-5.85939e-05 -7.23303e-06 5.91922e-06
-5.11855e-05 -1.656e-06 3.46121e-06
-0.000245312 -0.000112434 7.49617e-05
0.000313979 -0.00102927 -0.00106665
-1.49315e-05 -1.98945e-06 1.83395e-06
0.00180263 -0.00105786 0.00228456
-0.000100878 -4.68757e-05 3.74455e-05
-4.77045e-05 -7.39829e-06 2.36779e-06
-0.00021784 -9.20178e-05 3.73678e-05
-0.000645802 -0.000228697 0.000103315
-0.000305541 -0.000119287 6.33857e-05
-0.00015897 -3.29171e-05 2.13069e-05
-2.0978e-05 -2.19355e-06 2.12063e-06
-5.1824e-05 -1.20687e-05 -3.02582e-07
-0.000235681 -6.84265e-05 3.38204e-05
-0.000137783 -6.0652e-05 4.88052e-05
-0.000226312 -8.69684e-05 2.52553e-05
-2.4228e-05 -3.01537e-06 2.46767e-06
-3.54907e-05 -1.03377e-05 7.47919e-07
-4.81679e-05 -8.70732e-06 4.65282e-06
-0.000133515 -2.61327e-05 1.97731e-05
-7.85905e-05 -1.13616e-05 1.13786e-05
0.000439229 -0.00200275 -0.0013141
-0.000116816 -2.59083e-05 2.06748e-05
-1.25512e-05 -7.52421e-07 8.81726e-07
-0.000116094 -5.61469e-05 3.93456e-05
-8.98995e-05 -5.11652e-05 5.03373e-05
-5.88503e-05 -3.01095e-05 2.58908e-05
-7.21777e-05 -3.21354e-05 1.96493e-05
-0.00017827 -8.62837e-05 7.79845e-05
-5.67421e-05 -6.73758e-06 8.28874e-06
0.000556316 0.000913937 -0.00159055
-8.64929e-06 -3.47807e-07 6.33821e-07
0.000297092 0.000767744 -9.47968e-05
-0.000583701 0.000971764 0.000800758
0.00184939 -0.00175094 0.000396787
-2.34233e-05 -3.66394e-06 3.84646e-06
-2.88495e-05 -2.72118e-06 6.32435e-07
-0.000120686 -2.97633e-05 2.36961e-05
-0.000125921 -1.91855e-05 1.82814e-05
-0.00010932 -4.32284e-05 1.03772e-05
-0.000782541 -0.000319683 8.8887e-05
-0.000143185 -4.61522e-05 1.46611e-05
-0.000233443 -6.92909e-05 3.59995e-05
-0.000109673 -4.64663e-05 2.24662e-05
0.00118785 -0.000506691 -0.00076776
-0.000180555 -7.16419e-05 5.91693e-05
-0.000122758 -2.80481e-05 1.16638e-05
-0.000182644 -5.28956e-05 3.84741e-05
-1.03213e-05 -3.20016e-06 2.70785e-06
-0.000140538 -7.34834e-05 8.07267e-05
-1.69826e-05 -1.96228e-06 7.80592e-07
-0.00013508 -3.4854e-05 1.05197e-05
-0.000160111 -5.25201e-05 6.64627e-05
-0.000247542 -0.00010015 2.59866e-05
-0.000291752 -9.66801e-05 2.88839e-05
-1.32492e-05 -1.12098e-06 3.88703e-07
-6.72719e-05 -1.85059e-05 3.40263e-05
-0.000131481 -2.81503e-05 5.76405e-05
-0.000141042 -3.38235e-05 5.08859e-05
0.00231066 0.000170177 0.0025733
-0.000122448 -5.06786e-05 2.08359e-05
-6.16083e-05 -1.90379e-06 7.1314e-06
-6.96576e-05 -3.0366e-05 3.02702e-05
-0.00025331 -0.000104786 7.64506e-05
-5.11174e-05 -1.39649e-05 4.4621e-05
-0.000112787 -4.23163e-05 5.16105e-06
-0.000270626 -0.000119566 4.59622e-05
-0.000273664 -0.000106328 5.66441e-05
-3.56606e-05 -2.95396e-06 2.12082e-06
0.00010927 -0.000418331 -0.000929078
-1.46686e-05 -1.47496e-06 -3.6382e-08
-8.33455e-05 -3.70263e-05 2.84636e-05
-4.62127e-05 -5.13293e-06 3.44396e-05
0.00228162 -0.00123286 0.000236734
-9.57877e-06 -1.34746e-06 5.15581e-07
-0.000100029 -2.12031e-05 2.49561e-05
-5.18394e-05 -2.93759e-05 3.01612e-05
-0.000107445 -5.31472e-05 4.80019e-05
-0.000114492 -4.39618e-05 3.91838e-06
-0.00012688 -4.82084e-05 2.01374e-05
0.00169495 0.00160301 -0.00156141
-7.06757e-06 -8.49863e-07 1.02975e-06
0.00259972 -0.00120941 -4.36757e-06
-0.000100991 -3.75405e-05 1.13951e-05
-7.71961e-05 -3.23433e-05 2.70455e-05
-0.000199369 -7.79736e-05 6.95246e-05
-0.000212058 -9.43672e-05 5.74859e-05
-0.000103567 -4.53171e-05 6.94612e-06
-9.7463e-05 -4.17578e-05 7.18304e-06
-0.000159524 -7.15612e-05 2.49096e-05
0.00166055 -0.00137269 0.0016584
-0.000188904 -6.95176e-05 -1.92205e-06
-5.49555e-05 -1.37987e-05 4.86413e-06
-0.000383001 -0.000142112 9.97421e-05
-0.000153073 -6.68642e-05 3.5692e-05
-1.59645e-05 -7.35655e-06 6.29217e-06
-2.5577e-05 -4.34062e-06 7.23781e-06
-1.06177e-05 -9.46366e-07 8.84493e-07
0.00211437 -0.000835527 -0.000622335
-6.97363e-05 -3.13157e-05 2.07401e-05
-4.19179e-05 -1.7159e-05 2.787e-05
-7.15149e-05 -3.92883e-05 3.08822e-05
-0.000199472 0.00136207 4.74919e-05
0.00563865 -0.00336303 -0.00535663
-6.49982e-05 -2.42475e-05 1.52221e-05
-0.000191289 -8.43518e-05 3.93075e-05
-3.80602e-05 -1.13362e-05 1.33027e-07
-1.62383e-05 -6.44511e-06 5.86435e-06
-7.87943e-05 -2.23941e-05 8.87761e-06
-3.83614e-05 -1.3648e-05 9.71052e-06
-0.00010823 -5.15297e-05 4.13014e-05
-8.14183e-05 -4.07296e-05 3.05609e-05
-9.51046e-05 -2.70059e-05 1.87765e-05
-2.25965e-05 -2.69071e-06 6.61803e-06
-4.39212e-05 -1.02206e-05 2.92368e-05
-2.86247e-05 -1.00078e-05 2.23356e-05
-2.87646e-05 -6.03801e-06 1.39495e-05
-0.000133834 -4.35641e-05 4.32763e-05
-7.99108e-05 -2.55512e-05 6.64872e-06
-4.26557e-05 -5.83322e-06 3.97781e-06
-6.38377e-05 -1.51868e-05 1.02865e-05
-2.70855e-05 -6.13443e-06 2.88071e-06
-5.28263e-05 -3.18585e-05 3.15556e-05
-3.31985e-05 -8.00959e-06 -5.45208e-07
-0.000124261 -5.64164e-05 3.54701e-05
0.000279252 0.00105633 0.000229175
-0.000192678 -8.5288e-05 4.24585e-05
-0.000117512 -4.21581e-05 2.74008e-05
-0.000170267 -6.99432e-05 3.16804e-05
0.000928472 0.000144215 -0.00131452
-1.63115e-05 -5.23117e-06 3.07133e-06
-0.000101363 -4.26594e-05 2.73481e-06
-0.000179018 -7.76178e-05 2.32099e-05
-0.000113293 -4.99814e-05 2.25565e-05
-4.85768e-05 -2.23365e-05 2.12508e-05
-0.000107716 -2.96969e-05 2.5677e-05
-3.36593e-05 -1.36174e-05 1.68249e-05
-5.41626e-05 -2.89038e-05 2.88273e-05
-3.29493e-05 -6.18077e-06 5.51377e-06
-3.50476e-05 -5.80473e-06 8.58033e-06
-2.75801e-05 -5.81781e-06 2.26926e-06
-3.60889e-05 -8.24304e-06 1.15406e-06
-9.91897e-05 -4.19576e-05 2.31281e-05
-5.15913e-05 -7.21209e-06 2.23965e-05
-0.000106278 -4.65476e-05 2.69563e-05
-4.70282e-05 -1.17921e-05 1.7596e-05
-5.68879e-05 -2.48772e-05 3.78636e-05
0.000727832 0.000801806 -0.000134056
-1.32656e-05 -9.42636e-07 1.10837e-06
0.00175496 -0.000827215 -0.000318272
-1.45805e-05 -8.67265e-07 1.12744e-05
-2.70566e-05 -5.43077e-06 1.90232e-05
-0.000118347 -2.57078e-05 2.78593e-05
-5.77091e-05 -1.72131e-05 1.60328e-05
-9.15609e-05 -2.81027e-05 8.69845e-06
-7.83689e-05 -2.53872e-05 4.04864e-06
-7.42618e-06 -6.08514e-07 7.34505e-07
-8.41025e-05 -2.77058e-05 1.33786e-05
-0.000117587 -5.07302e-05 2.98511e-05
-5.8258e-05 -2.77797e-05 3.23634e-05
-7.80956e-05 -2.54419e-05 7.27192e-06
-2.85108e-05 -4.47052e-06 6.05712e-07
-0.000128063 -5.78257e-05 2.20771e-05
-6.14228e-05 -4.8636e-06 7.74739e-06
-4.56703e-05 -1.10141e-05 1.2181e-05
-9.87382e-05 -3.36176e-05 3.39048e-05
-3.48529e-05 -1.83228e-05 1.67053e-05
-0.000143478 -6.18834e-05 3.66385e-05
-2.43474e-05 -7.78844e-06 1.5155e-05
-0.000131095 -4.62552e-05 1.17228e-05
-1.94513e-05 -4.38471e-06 4.36335e-06
0.00138769 -0.000908382 -0.0017499
-4.33083e-05 -1.42769e-05 1.00622e-05
-7.11619e-05 -2.37887e-05 3.95016e-07
-9.69932e-05 -1.46577e-05 1.40764e-05
-2.48233e-05 -9.26539e-06 8.63242e-06
-5.41548e-05 -1.48243e-05 3.49733e-06
-9.69465e-05 -1.05534e-05 1.17569e-05
0.00173194 0.00521505 -0.000998664
0.00246951 -0.00219175 0.00306751
-3.0344e-05 -4.23875e-06 1.13953e-05
-0.000110005 -2.37315e-05 2.58545e-05
-4.26612e-05 -1.15893e-05 4.07628e-06
-9.90616e-05 -4.52228e-05 2.9676e-05
-8.96852e-05 -1.26341e-05 1.0727e-05
-7.70239e-05 -2.35253e-05 1.27946e-05
-0.000104278 -4.51326e-05 3.05201e-05
-0.00304481 0.000918325 -0.00250226
-6.05974e-05 -2.03578e-05 2.78224e-05
-1.0976e-05 -2.3466e-06 6.55319e-07
-0.00257969 0.00242369 -0.000982099
-1.70912e-05 -1.01538e-05 7.97413e-06
0.000326739 0.00182896 0.000185631
-8.71608e-05 -3.46633e-05 3.25455e-05
-5.27899e-05 -2.08112e-05 1.83408e-05
-0.000973296 -0.000122568 0.000784383
-4.70281e-05 -9.28584e-06 6.79194e-06
-0.000954015 -0.000526822 -0.0010606
-4.30166e-05 -1.81588e-05 5.9151e-06
-2.7403e-05 -1.42395e-05 1.44984e-05
-2.3257e-05 -2.67454e-06 1.20257e-05
-0.000131959 -5.70259e-05 2.89016e-05
-1.98128e-05 -4.7466e-06 1.47875e-06
-0.000133423 9.32718e-05 0.000848915
-0.000107686 -1.45582e-05 1.4894e-05
-2.36055e-05 -9.49282e-06 -9.81003e-07
-4.62582e-05 -2.08426e-05 5.97251e-06
-0.000115873 -0.000410106 0.00038582
-4.28863e-05 -1.63388e-05 2.91382e-05
-6.66342e-05 -2.65547e-05 3.0609e-05
-4.59337e-05 -2.00503e-05 6.0361e-06
-3.15078e-05 -1.29123e-05 8.31221e-06
-8.80932e-06 -3.16906e-07 1.67321e-07
0.0038685 -0.000929818 0.00160545
-0.000488409 -0.000608406 0.000723392
-0.00142517 -0.00150999 0.00125673
-4.65101e-05 -1.43847e-05 2.58695e-05
-2.05332e-05 -9.73082e-06 1.10094e-05
-2.09048e-05 -6.05946e-06 8.82209e-06
-4.12831e-05 -1.94621e-05 1.40673e-05
-0.00173793 0.00255572 -0.00163375
0.00177129 -0.00021234 0.000240554
-1.02052e-05 -1.51735e-06 -5.01753e-07
-1.31885e-05 -2.0706e-06 3.38187e-07
-6.41471e-05 -3.82508e-05 3.80919e-05
-1.02704e-05 -2.13108e-06 7.9828e-07
0.00435008 -0.00218007 0.00058467
-8.4416e-05 -4.46684e-05 3.95028e-05
-8.71033e-06 -2.09461e-06 8.09353e-06