# vtk DataFile Version 4.2
vtk output
ASCII
DATASET UNSTRUCTURED_GRID

POINTS 343 double
0.00124015 0.00419998 -4.23971e-06
0.00239683 0.00499304 0.00216651
0 0.00419538 0.00112517
0.00213715 0.00196406 0.00193428
0.00573664 0.00244851 0.00500922
0.00572974 0.00386775 0.00637361
0.00844088 0.00484417 0.0049632
0.00688654 0.00490018 0.00366475
0.00758316 0.00334935 0.00688022
0.00551858 0.0050269 0.00497793
0.00464946 0.00115138 0.00997938
0.00586584 0.00212407 0.00787892
0.00466685 2.75564e-05 0.00829836
0.0022303 0.0020121 0.00802486
0.00475801 0.00256386 0.00997866
0.00768759 0.00650291 0.00691264
0.007086 0.00623235 0.00515392
0.0025043 0.00219628 0.00513699
0 0.00143586 0.00417514
0.00176359 0.00347321 0.004031
0.00758206 0.003256 0.00313174
0.00860255 0.00229004 0.00502726
0 0.00270918 0.00154168
0.00461722 0.00146277 -1.60006e-05
0.00555732 0.00222934 0.00217623
0.00438575 0.0035527 0.00158654
0.00149414 5.60446e-06 0.00405456
0.00465527 2.79654e-05 0.00167014
0.00289486 0.00696532 -9.96749e-06
0.00213428 0.00806159 0.00193695
0.00451023 0.00627224 0.00162814
0.00883569 0.00805484 0.00795542
0.00882452 0.00488808 0.00798048
0.00928079 0.00615644 0.00590702
0.0110475 0.00892274 0.00414485
0.00836219 0.00769961 0.00492875
0.00944041 0.0100557 0.00412761
0.00880083 0.00804059 0.00198224
0.00391809 0.0030584 0.00694439
0.00491736 0.00369148 0.00830307
0.0043227 0.00162929 0.00595208
0.00551986 0.00770251 0.00765312
0.00219324 0.00801733 0.00798197
0.00310722 0.010013 0.00711611
0.00431212 0.00842401 0.00594135
0 0.00695361 0.00262895
0.00181667 0.00624697 0.00408134
0 0.0040177 0.00850214
0.00255751 0.00499684 0.00765224
0.00158483 0.00418096 0.00999446
0.00792921 0.00717652 0.00995994
0.00676442 0.00601672 0.00838661
0.00226115 0.00795087 0.00473373
0.00335761 0.00695867 0.00645555
0.00175177 0.00608552 0.00591972
0.0110711 0.00588407 0.00826079
0 0.00718191 0.00711644
0.00174787 0.005781 -5.95783e-06
0 0.00577432 0.00158701
0.0110611 0.00725545 0.0070616
0.00317713 0.00336547 0.00998658
0.0110913 0.00152182 0.00412629
0.00892698 0.0020256 0.00194415
0.00930571 0.0035847 0.00395954
0.00413652 0.0016754 0.00411226
0.00165968 0.0100057 0.00580925
0.00312873 1.5982e-05 0.00711598
0.00677035 0.00421966 0.00834532
0.0110557 0.00734684 0.00414681
0.00949796 7.30883e-05 0.00412712
0.00370015 0.00289076 -1.25724e-05
0.00299964 0.00155567 0.0099874
0.00313684 1.66568e-05 0.00282041
0.00530712 0.00522582 0.00753161
0.00349606 0.00316441 0.00315413
0 0.00849157 0.00581511
0.00538758 0.00370458 0.00376505
0.00170027 0.00271527 -5.6943e-06
0.00639793 0.00835915 0.00996881
0.00658777 0.0100343 0.00847425
0.00463606 0.010022 0.00829762
0.00442937 0.0085248 0.0099804
0.0110518 0.00856383 0.00576306
0.00347095 0.00685035 0.00313759
0 0.00748929 0.00137438
0.00151258 0.00749457 -5.11511e-06
0 0.00287343 0.00335182
0 0.00580816 0.00831736
0 0.00429792 0.00253898
0.00279874 0.00430943 -9.47557e-06
0.00158378 0.0058254 0.0099944
0.00571403 0.00650398 0.00637643
0.00397918 0.0065289 0.00821775
0.00770194 0.00267691 0.00996164
0.00889243 0.0020207 0.0079921
0.00772908 5.49705e-05 0.00305081
0.00666642 0.00170713 0.00358598
0.0110813 0.00295607 0.00330464
0 0.00140616 0.00256446
0.00702699 0.00826624 0.00639023
0.00644111 0.00147734 -2.29098e-05
0.00667349 0.00359176 0.00157782
0.00346967 0.0100153 0.0058117
0.00943697 0.0100556 0.00579019
0.00283375 0.00142034 -9.53883e-06
0.00662448 4.49711e-05 0.00146865
0.00692089 0.00832557 0.00358952
0.00949422 7.26635e-05 0.00578964
0.00687506 0.00171681 0.00633528
0.00155331 0.0025698 0.00999452
0.00784788 0.00722688 -2.8615e-05
0.00569069 0.00771887 0.00214742
0.00655556 0.00612809 0.00157721
0 0.00686719 0.00578184
0.0110898 0.00149265 0.00251842
0.00196043 0.00361802 0.00640068
0.0110477 0.00855944 0.00257779
0.00929444 0.00624823 0.00409315
0.00657827 0.0100348 0.00146945
0.00773322 5.50019e-05 0.00689116
0.0110937 0.00152097 0.0057671
0.00929687 0.00363633 0.00601782
0.00166772 6.44432e-06 0.00580931
0 0.0013659 0.00748679
0.00151425 5.9636e-06 0.00752385
0.0110602 0.00694074 0.00573023
0.00640305 0.00852535 -2.26611e-05
0 0.0075208 0.00859127
0.00150629 0.00749226 0.00999462
0.00465783 0.0082278 0.00361057
0.00947657 0.0100563 0.00746544
0.0110542 0.00870203 0.00747097
0.00640133 0.00162683 0.00996916
0.00803545 0.00423706 0.00995949
0 0.0057735 0.00666667
0.00150749 0.0100052 0.00752347
0 0.00863025 0.00752641
0.00952604 7.39744e-05 0.00246847
0.0110558 0.00702687 0.00258291
0.00934353 0.00640126 0.00212605
0.00941325 0.0058834 0.00995078
0.00830721 0.00143189 0.00995795
0.00953416 7.33352e-05 0.00746601
0.0110975 0.00145156 0.00743117
0 0.00143551 0.00581971
0.00663235 4.42784e-05 0.00847527
0.00466842 2.84998e-05 0.00338188
0.00876981 0.00476409 0.00200035
0.0110716 0.00437778 0.00249379
0.0046515 0.0100222 0.00664762
0.00311453 0.010013 0.00282039
0.00145097 5.59679e-06 0.00241286
0 0.00727418 0.00419576
0.0110684 0.00585004 0.00661289
0.00767899 0.0100427 0.00305115
0.00828686 0.00868509 0.00995752
0 0.00574334 0.00336387
0 0.0043297 0.00416652
0.00759474 0.00582727 0.00996163
0.0110858 0.00310431 0.00686063
0.00468433 2.82336e-05 0.0066476
0.00272678 0.0100112 0.00860079
0.008291 0.0014248 -3.04096e-05
0.00637766 0.00669976 0.00996907
0.0110621 0.00759401 0.00853444
0.00951362 0.00761207 0.00994996
0.00764743 0.00307172 -2.81288e-05
0.00370671 0.00575877 -1.30005e-05
0.00829526 0.00867827 -3.05323e-05
0.00827788 0.0100474 0.00135566
0.00637272 0.00690077 -2.26139e-05
0.00769735 0.00641466 0.00300267
0.00833058 6.18134e-05 0.00135528
0.00318606 0.00501209 0.00998654
0.0047843 0.00585522 0.0099781
0.00478823 0.00418929 0.00997813
0.00828742 0.0100475 0.00857409
0.00274458 1.41183e-05 0.00860119
0.0110634 0.00582077 0.00331687
0 0.00302218 0.00691532
0.0110825 0.00409743 0.0084453
0.00940341 0.00408223 -3.44967e-05
0.0110806 0.00279253 0.00149799
0 0.00244495 0.00857025
0.00269617 0.00858177 0.00998893
0.00834054 6.1158e-05 0.00857512
0.00940885 0.00268937 0.00995111
0.00980426 0.00426024 0.0099485
0.00624293 0.0100324 0.00580664
0.00571588 0.00761229 0.00500911
0.00621006 0.0100323 0.0041903
0.00768254 0.0100426 0.00689108
0.00333587 0.00692841 0.00998583
0.00459659 0.00435147 -1.63327e-05
0.00313963 1.66823e-05 0.00439251
0.00349331 1.87885e-05 0.00581172
0.0110713 0.0042758 0.00108211
0.00400384 0.00835606 0.00157325
0.0110729 0.004409 0.00411718
0.00735691 0.00581587 -2.6689e-05
0.00946821 0.0100562 0.00246892
0 0.00848692 0.00262374
0.00148734 0.0100053 0.00405469
0 0.00885053 0.00419359
0.00461391 0.00887297 -1.63874e-05
0.00462223 0.0100224 0.00167057
0.0055172 0.00481888 0.00235799
0.00797627 0.00457146 -2.92502e-05
0.00625234 4.16013e-05 0.00419014
0.006285 4.16143e-05 0.00580689
0.00144433 0.0100051 0.00241298
0.00948844 0.00251305 -3.47782e-05
0.0110771 0.00460043 0.00716436
0.00783819 0.0100435 0.00496666
0.00635799 0.00339968 0.00996951
0.00272134 1.41311e-05 0.00134652
0.0110929 0.00252843 0.00851307
0.00264257 0.00480186 0.00499009
0.00644195 0.00436664 -2.33765e-05
0.00918712 0.00586677 -3.384e-05
0.00603381 0.0100308 0.00719363
0.0110758 0.00440929 0.00578096
0.00594368 0.0100307 0.00275303
0.00788918 5.6491e-05 0.00496665
0.00311826 0.010013 0.00439283
0 0.00452174 0.00721958
0.00499078 0.00724331 0.00997703
0.00607473 3.946e-05 0.00719406
0.00397488 0.00509128 0.00358145
0.00467623 0.0100223 0.00498972
0.00471031 2.8875e-05 0.00498949
0.00405154 0.00523452 0.00615891
0 0.005744 0.00499998
0 0.00433013 0.00583333
0.0055133 0.00577089 -1.97719e-05
0.00549644 0.00636586 0.00353226
0.00598546 3.94066e-05 0.00275233
0.0110655 0.00582151 0.00494926
0.00406933 0.00642534 0.0048285
0.00635148 0.00503337 0.0099694
0.0110617 0.0058517 0.00154352
0 0.00666667 0
0.00948245 0.00757994 -3.49089e-05
0.00368979 2.22809e-05 -1.37529e-05
0 0.01 0.00666667
0.00551256 0.0100276 0.00997377
0 0.00288419 0.00499914
0.011052 0.00756193 0.00133126
0.0110559 0.0067419 -4.17916e-05
0 0.005 0.01
0.00552456 0.00291533 -1.95495e-05
0 0.005 0
0.0111007 9.13729e-05 0.00328592
0.0110469 0.0100688 0.00661271
0.00462065 0.0072955 -1.63355e-05
0.0110834 0.00296699 0.00494832
0.00553824 3.70034e-05 -2.06016e-05
0 0 0.00666667
0.00419603 0.00363599 0.00521015
0.00554859 3.58016e-05 0.009975
0.0111057 9.07252e-05 0.00661246
0 0 0.005
0.00968014 0.0100579 0.00118293
0.011045 0.00885184 0.00117703
0.011103 9.09271e-05 0.00494902
0.0110662 0.0050789 -4.14622e-05
0.00134657 0.00122564 -4.46356e-06
0 0.00122008 0.00122008
0 0.00333333 0.01
0 0.00666667 0.01
0.00968611 0.00883946 -3.56388e-05
0.0110417 0.010069 0.00328593
0.00463427 0.0100223 0.00338219
0.0110707 0.00674093 0.00993984
0 0.00333333 0
0 0.00122008 0.00877992
0.00134946 5.73446e-06 0.00877548
0.00134826 0.00122516 0.00999515
0.00969106 0.0100583 0.00872953
0.00134483 0.00878502 0.00999524
0 0.00877992 0.00877992
0.0110556 0.00885158 0.00872245
0.00733863 0.0100402 -2.6627e-05
0.01109 0.00130765 0.00117664
0.00134344 0.0100049 0.00877458
0.00969918 0.00883958 0.00994848
0.0110806 0.00507757 0.0099399
0 0 0.00333333
0.00738851 5.34818e-05 -2.79523e-05
0.0097383 7.67682e-05 0.00118237
0.00133891 5.66188e-06 0.00120637
0 0.00877992 0.00122008
0.00134211 0.00878484 -4.6774e-06
0.00133233 0.0100049 0.00120703
0.0111011 0.00130634 0.00872247
0.00974403 0.00129255 0.00994911
0.00740096 5.21363e-05 0.0099643
0.00972962 0.00129413 -3.58753e-05
0.00974915 7.56692e-05 0.00873053
0.0110762 0.00341554 -4.14099e-05
0.00367307 0.0100171 0.00998363
0.00270214 0.0100111 0.00134656
0.00735262 0.0100403 0.00996274
0.0110908 0.00341467 0.00994025
0 0.01 0.005
0.0028861 0.00849886 -1.01501e-05
0.0110441 0.0100687 0.00494984
0 0.01 0.00333333
0 0.00166667 0
0.011099 9.16101e-05 0.00162211
0 0.00166667 0.01
0 0.00833333 0
0.0110472 0.00840548 -4.08733e-05
0.0111088 9.05961e-05 0.00827666
0.0110399 0.0100693 0.00162263
0.0110498 0.0100691 0.00827618
0.00183547 0.0100074 0.00999274
0 0.01 0.00833333
0.00918409 0.0100538 -3.4261e-05
0.00924074 7.23321e-05 -3.46975e-05
0.00925475 7.08342e-05 0.00995274
0.00919819 0.0100547 0.00995152
0 0 0.00833333
0.0110611 0.00840575 0.00993986
0.00184367 9.56472e-06 -6.60503e-06
0 0 0.00166667
0.00366336 0.0100166 -1.30231e-05
0.0111013 0.00175186 0.00994035
0.0110868 0.00175323 -4.1508e-05
0.00184576 8.84816e-06 0.00999296
0.00183147 0.0100072 -6.5531e-06
0 0.01 0.00166667
0.0110523 0.0100696 0.00993991
0 0 0.01
0.0110386 0.0100695 -4.10663e-05
0.0111118 9.02393e-05 0.00994102
0 0.01 0.01
0.0110975 9.22187e-05 -4.2135e-05
0 0.01 0
0 0 0
0.00549934 0.0100279 -1.9534e-05
0.003697 2.06528e-05 0.00998459
0 0.00833333 0.01

CELLS 343 686
1 0
1 1
1 2
1 3
1 4
1 5
1 6
1 7
1 8
1 9
1 10
1 11
1 12
1 13
1 14
1 15
1 16
1 17
1 18
1 19
1 20
1 21
1 22
1 23
1 24
1 25
1 26
1 27
1 28
1 29
1 30
1 31
1 32
1 33
1 34
1 35
1 36
1 37
1 38
1 39
1 40
1 41
1 42
1 43
1 44
1 45
1 46
1 47
1 48
1 49
1 50
1 51
1 52
1 53
1 54
1 55
1 56
1 57
1 58
1 59
1 60
1 61
1 62
1 63
1 64
1 65
1 66
1 67
1 68
1 69
1 70
1 71
1 72
1 73
1 74
1 75
1 76
1 77
1 78
1 79
1 80
1 81
1 82
1 83
1 84
1 85
1 86
1 87
1 88
1 89
1 90
1 91
1 92
1 93
1 94
1 95
1 96
1 97
1 98
1 99
1 100
1 101
1 102
1 103
1 104
1 105
1 106
1 107
1 108
1 109
1 110
1 111
1 112
1 113
1 114
1 115
1 116
1 117
1 118
1 119
1 120
1 121
1 122
1 123
1 124
1 125
1 126
1 127
1 128
1 129
1 130
1 131
1 132
1 133
1 134
1 135
1 136
1 137
1 138
1 139
1 140
1 141
1 142
1 143
1 144
1 145
1 146
1 147
1 148
1 149
1 150
1 151
1 152
1 153
1 154
1 155
1 156
1 157
1 158
1 159
1 160
1 161
1 162
1 163
1 164
1 165
1 166
1 167
1 168
1 169
1 170
1 171
1 172
1 173
1 174
1 175
1 176
1 177
1 178
1 179
1 180
1 181
1 182
1 183
1 184
1 185
1 186
1 187
1 188
1 189
1 190
1 191
1 192
1 193
1 194
1 195
1 196
1 197
1 198
1 199
1 200
1 201
1 202
1 203
1 204
1 205
1 206
1 207
1 208
1 209
1 210
1 211
1 212
1 213
1 214
1 215
1 216
1 217
1 218
1 219
1 220
1 221
1 222
1 223
1 224
1 225
1 226
1 227
1 228
1 229
1 230
1 231
1 232
1 233
1 234
1 235
1 236
1 237
1 238
1 239
1 240
1 241
1 242
1 243
1 244
1 245
1 246
1 247
1 248
1 249
1 250
1 251
1 252
1 253
1 254
1 255
1 256
1 257
1 258
1 259
1 260
1 261
1 262
1 263
1 264
1 265
1 266
1 267
1 268
1 269
1 270
1 271
1 272
1 273
1 274
1 275
1 276
1 277
1 278
1 279
1 280
1 281
1 282
1 283
1 284
1 285
1 286
1 287
1 288
1 289
1 290
1 291
1 292
1 293
1 294
1 295
1 296
1 297
1 298
1 299
1 300
1 301
1 302
1 303
1 304
1 305
1 306
1 307
1 308
1 309
1 310
1 311
1 312
1 313
1 314
1 315
1 316
1 317
1 318
1 319
1 320
1 321
1 322
1 323
1 324
1 325
1 326
1 327
1 328
1 329
1 330
1 331
1 332
1 333
1 334
1 335
1 336
1 337
1 338
1 339
1 340
1 341
1 342

CELL_TYPES 343
1
1
1
1
1
1
1
1
1
1
1
1
1
1
1
1
1
1
1
1
1
1
1
1
1
1
1
1
1
1
1
1
1
1
1
1
1
1
1
1
1
1
1
1
1
1
1
1
1
1
1
1
1
1
1
1
1
1
1
1
1
1
1
1
1
1
1
1
1
1
1
1
1
1
1
1
1
1
1
1
1
1
1
1
1
1
1
1
1
1
1
1
1
1
1
1
1
1
1
1
1
1
1
1
1
1
1
1
1
1
1
1
1
1
1
1
1
1
1
1
1
1
1
1
1
1
1
1
1
1
1
1
1
1
1
1
1
1
1
1
1
1
1
1
1
1
1
1
1
1
1
1
1
1
1
1
1
1
1
1
1
1
1
1
1
1
1
1
1
1
1
1
1
1
1
1
1
1
1
1
1
1
1
1
1
1
1
1
1
1
1
1
1
1
1
1
1
1
1
1
1
1
1
1
1
1
1
1
1
1
1
1
1
1
1
1
1
1
1
1
1
1
1
1
1
1
1
1
1
1
1
1
1
1
1
1
1
1
1
1
1
1
1
1
1
1
1
1
1
1
1
1
1
1
1
1
1
1
1
1
1
1
1
1
1
1
1
1
1
1
1
1
1
1
1
1
1
1
1
1
1
1
1
1
1
1
1
1
1
1
1
1
1
1
1
1
1
1
1
1
1
1
1
1
1
1
1
1
1
1
1
1
1
1
1
1
1
1
1
1
1
1
1
1
1
1
1
1
1
1
1
1
1
1
1
1
1
1
1
1
1
1
1

POINT_DATA 343
FIELD FieldData 8

NodeID_(#) 1 343 int
0
1
2
3
4
5
6
7
8
9
10
11
12
13
14
15
16
17
18
19
20
21
22
23
24
25
26
27
28
29
30
31
32
33
34
35
36
37
38
39
40
41
42
43
44
45
46
47
48
49
50
51
52
53
54
55
56
57
58
59
60
61
62
63
64
65
66
67
68
69
70
71
72
73
74
75
76
77
78
79
80
81
82
83
84
85
86
87
88
89
90
91
92
93
94
95
96
97
98
99
100
101
102
103
104
105
106
107
108
109
110
111
112
113
114
115
116
117
118
119
120
121
122
123
124
125
126
127
128
129
130
131
132
133
134
135
136
137
138
139
140
141
142
143
144
145
146
147
148
149
150
151
152
153
154
155
156
157
158
159
160
161
162
163
164
165
166
167
168
169
170
171
172
173
174
175
176
177
178
179
180
181
182
183
184
185
186
187
188
189
190
191
192
193
194
195
196
197
198
199
200
201
202
203
204
205
206
207
208
209
210
211
212
213
214
215
216
217
218
219
220
221
222
223
224
225
226
227
228
229
230
231
232
233
234
235
236
237
238
239
240
241
242
243
244
245
246
247
248
249
250
251
252
253
254
255
256
257
258
259
260
261
262
263
264
265
266
267
268
269
270
271
272
273
274
275
276
277
278
279
280
281
282
283
284
285
286
287
288
289
290
291
292
293
294
295
296
297
298
299
300
301
302
303
304
305
306
307
308
309
310
311
312
313
314
315
316
317
318
319
320
321
322
323
324
325
326
327
328
329
330
331
332
333
334
335
336
337
338
339
340
341
342

Component_(#) 1 343 int
0
0
0
0
0
0
0
0
0
0
0
0
0
0
0
0
0
0
0
0
0
0
0
0
0
0
0
0
0
0
0
0
0
0
0
0
0
0
0
0
0
0
0
0
0
0
0
0
0
0
0
0
0
0
0
0
0
0
0
0
0
0
0
0
0
0
0
0
0
0
0
0
0
0
0
0
0
0
0
0
0
0
0
0
0
0
0
0
0
0
0
0
0
0
0
0
0
0
0
0
0
0
0
0
0
0
0
0
0
0
0
0
0
0
0
0
0
0
0
0
0
0
0
0
0
0
0
0
0
0
0
0
0
0
0
0
0
0
0
0
0
0
0
0
0
0
0
0
0
0
0
0
0
0
0
0
0
0
0
0
0
0
0
0
0
0
0
0
0
0
0
0
0
0
0
0
0
0
0
0
0
0
0
0
0
0
0
0
0
0
0
0
0
0
0
0
0
0
0
0
0
0
0
0
0
0
0
0
0
0
0
0
0
0
0
0
0
0
0
0
0
0
0
0
0
0
0
0
0
0
0
0
0
0
0
0
0
0
0
0
0
0
0
0
0
0
0
0
0
0
0
0
0
0
0
0
0
0
0
0
0
0
0
0
0
0
0
0
0
0
0
0
0
0
0
0
0
0
0
0
0
0
0
0
0
0
0
0
0
0
0
0
0
0
0
0
0
0
0
0
0
0
0
0
0
0
0
0
0
0
0
0
0
0
0
0
0
0
0
0
0
0
0
0
0
0
0
0
0
0
0
0
0
0
0
0
0
0
0
0
0
0
0

NodalMass_(kg) 1 343 double
3.15563e-06
1.41304e-05
2.20912e-06
1.71484e-05
8.42e-06
9.09306e-06
9.93033e-06
7.52198e-06
6.81096e-06
5.58223e-06
3.10888e-06
1.07575e-05
4.87011e-06
1.64955e-05
3.0246e-06
8.05984e-06
6.703e-06
1.0877e-05
4.18978e-06
8.16106e-06
6.14143e-06
1.17902e-05
2.23114e-06
4.25176e-06
1.09915e-05
7.41467e-06
4.21871e-06
3.92484e-06
3.08766e-06
1.31268e-05
7.72627e-06
1.65404e-05
1.19037e-05
7.29666e-06
3.81683e-06
1.11001e-05
3.81317e-06
1.39137e-05
6.37414e-06
8.00975e-06
7.6712e-06
1.18847e-05
1.6399e-05
2.78633e-06
8.93599e-06
2.58087e-06
7.57362e-06
4.23241e-06
1.31286e-05
3.80168e-06
2.7746e-06
7.16776e-06
1.21307e-05
5.11765e-06
8.19728e-06
4.58094e-06
2.79503e-06
3.26126e-06
4.12443e-06
2.11915e-06
3.35177e-06
3.61669e-06
1.56838e-05
7.33679e-06
8.24695e-06
5.00369e-06
2.82625e-06
7.20276e-06
3.26815e-06
4.18751e-06
2.02785e-06
2.42152e-06
3.11835e-06
5.97459e-06
5.87101e-06
4.09374e-06
5.45463e-06
2.28825e-06
4.49759e-06
4.38192e-06
4.50892e-06
4.39234e-06
4.27273e-06
5.32031e-06
1.53201e-06
2.38869e-06
2.02885e-06
4.38798e-06
3.17972e-06
3.14298e-06
4.61567e-06
5.87645e-06
8.18088e-06
2.48341e-06
1.53815e-05
3.49683e-06
7.35227e-06
2.01314e-06
2.0408e-06
7.98183e-06
4.41293e-06
7.1389e-06
1.20123e-06
5.03343e-06
1.61257e-06
4.12601e-06
8.73748e-06
4.37849e-06
7.97173e-06
2.13557e-06
3.38137e-06
9.48623e-06
7.40262e-06
1.80226e-06
2.10222e-06
7.98889e-06
1.87983e-06
7.44814e-06
4.19782e-06
2.37156e-06
4.31705e-06
6.06441e-06
4.30905e-06
2.16843e-06
1.8986e-06
1.81294e-06
3.89762e-06
2.44299e-06
1.65628e-06
8.01374e-06
1.64513e-06
2.3931e-06
3.01363e-06
2.99431e-06
1.36541e-06
1.87293e-06
2.09622e-06
1.94762e-06
1.87618e-06
6.37913e-06
4.58628e-06
2.02767e-06
1.61999e-06
2.41284e-06
3.8865e-06
4.44973e-06
2.29839e-06
1.17349e-05
3.11811e-06
1.354e-06
3.45063e-06
1.81846e-06
2.9382e-06
1.37381e-06
2.41464e-06
2.10451e-06
2.63927e-06
2.14166e-06
1.7943e-06
3.19976e-06
1.36989e-06
2.43489e-06
2.08158e-06
1.3601e-06
2.17203e-06
1.89924e-06
3.16996e-06
2.6119e-06
2.37677e-06
1.60225e-06
1.90684e-06
5.49206e-06
1.87878e-06
3.14313e-06
2.97301e-06
1.18454e-06
1.89263e-06
2.04166e-06
2.73572e-06
2.42405e-06
3.23083e-06
3.19752e-06
3.2142e-06
1.94492e-06
1.61196e-06
1.86876e-06
3.22435e-06
2.1114e-06
2.96917e-06
6.15288e-06
2.3097e-06
2.39729e-06
2.38029e-06
2.64508e-06
1.66557e-06
1.82377e-06
2.06583e-06
5.73271e-06
2.08467e-06
2.18324e-06
2.43522e-06
3.1188e-06
3.17316e-06
2.05447e-06
1.9592e-06
3.05718e-06
6.44327e-06
2.08796e-06
2.72615e-06
2.15709e-06
1.86812e-06
2.0028e-06
2.10999e-06
2.88994e-06
2.3222e-06
2.3979e-06
1.97629e-06
6.4127e-06
2.16225e-06
3.29198e-06
2.10223e-06
2.66566e-06
1.94415e-06
2.91865e-06
2.58116e-06
2.11703e-06
2.09534e-06
1.91719e-06
7.06046e-06
2.25203e-06
2.06378e-06
6.28159e-06
2.12147e-06
2.90924e-06
2.12921e-06
6.4487e-06
1.41701e-06
2.0682e-06
6.58062e-06
2.52584e-06
2.39732e-06
7.42191e-07
2.22368e-06
7.06751e-07
7.00657e-07
8.93749e-07
2.53536e-06
2.26535e-06
1.33607e-06
7.84725e-07
2.32303e-06
6.06694e-07
6.68276e-07
6.84307e-07
2.51242e-06
2.31629e-06
7.8367e-07
6.80839e-07
6.22692e-06
6.7471e-07
6.65305e-07
7.01158e-07
1.8232e-06
1.90695e-06
6.86722e-07
7.04792e-07
1.86445e-06
2.28572e-06
6.8045e-07
7.16005e-07
1.82373e-06
6.01079e-07
2.02791e-06
7.4579e-07
5.74423e-07
1.80052e-06
1.454e-06
2.2702e-06
1.80636e-06
2.15356e-06
1.79089e-06
1.79456e-06
6.8231e-07
2.24737e-06
1.45239e-06
1.79556e-06
6.97875e-07
6.24265e-07
6.62717e-07
1.44627e-06
1.40138e-06
2.15258e-06
1.82851e-06
1.3994e-06
1.43932e-06
2.19226e-06
6.97732e-07
1.77726e-06
1.79162e-06
6.54258e-07
7.3397e-07
2.34895e-06
7.10392e-07
6.56982e-07
6.26314e-07
2.18926e-06
6.12493e-07
6.03901e-07
5.92831e-07
5.12031e-07
5.11667e-07
4.9467e-07
4.97016e-07
4.96269e-07
5.33079e-07
4.94191e-07
4.97855e-07
4.86862e-07
4.90626e-07
4.94649e-07
4.94954e-07
4.91922e-07
4.89615e-07
4.96354e-07
4.95189e-07
4.82188e-07
1.10854e-06
5.3299e-07
5.44763e-07
5.36655e-07
5.15417e-07
5.01772e-07
5.53774e-07
5.53774e-07
5.53774e-07
5.53774e-07
5.53774e-07
5.53774e-07
5.50785e-07
5.50785e-07
7.45291e-07
7.11668e-07
4.9897e-07

NodalForce_(N) 3 343 double
8.24257e-06 9.52554e-08 -3.95426e-07
8.20078e-05 -4.91386e-06 -1.1366e-06
-0.000938367 -0.000742751 -0.000402095
4.54236e-05 -8.96324e-06 -5.76246e-06
2.8271e-05 -7.28866e-05 3.79371e-06
6.24044e-05 -6.75014e-05 6.31549e-06
0.000147236 -0.000159831 2.2804e-05
0.000102031 -7.57353e-05 1.0624e-05
4.76318e-05 -9.82633e-05 1.06907e-05
6.04019e-05 -3.39172e-05 4.20258e-06
-5.07689e-06 -2.43706e-05 2.51908e-07
1.02236e-05 -0.000107962 4.62552e-06
-2.10932e-05 -3.98288e-05 -1.78392e-06
2.8645e-05 -1.49599e-05 -1.96291e-06
5.348e-06 -2.01717e-05 1.28062e-06
0.000150039 -0.000104509 1.9014e-05
0.00011788 -7.05074e-05 1.19147e-05
2.82008e-05 -1.19302e-05 -4.30354e-06
0.00101088 -0.00101191 0.000711639
2.40787e-05 -1.42857e-06 -2.82888e-06
5.47374e-05 -8.4404e-05 7.91705e-06
6.20981e-05 -0.000223167 2.11963e-05
0.000220659 0.00150277 0.000850744
1.15687e-05 -2.52295e-05 -2.94902e-06
4.57636e-05 -8.91485e-05 5.71966e-06
5.52792e-05 -2.53451e-05 2.89323e-06
5.95055e-07 -1.15429e-06 -1.607e-06
-5.17994e-06 -2.68549e-05 -1.31004e-06
3.06383e-05 -9.18101e-07 1.0825e-06
9.62709e-05 -9.62842e-07 4.61993e-06
0.000101951 -1.77637e-05 8.9875e-06
0.000432988 -0.000296907 6.49073e-05
0.000161752 -0.000217468 3.2715e-05
0.00015121 -0.000138844 2.33161e-05
0.000136132 -9.5167e-05 2.19276e-05
0.000288319 -0.000164339 3.47079e-05
0.000143469 -7.19714e-05 1.97667e-05
0.000419614 -0.000207297 6.0183e-05
2.45429e-05 -2.23359e-05 -4.26132e-07
3.97538e-05 -4.48025e-05 5.07647e-06
3.96914e-06 -4.34829e-05 -1.15027e-06
0.000198152 -8.47824e-05 1.9842e-05
0.00010376 -1.57997e-05 2.09326e-06
3.75835e-05 -6.97254e-06 1.8682e-06
0.000137291 -3.7137e-05 8.78576e-06
-0.00118541 -0.000985797 0.000271102
3.56297e-05 -3.00368e-06 4.64794e-07
0.000471129 -0.00134612 0.000362367
6.8358e-05 -1.43078e-05 -6.69022e-07
1.01471e-05 -2.42983e-06 -6.61612e-07
5.44754e-05 -4.21694e-05 8.17264e-06
0.000102424 -7.4275e-05 1.39187e-05
8.39098e-05 -5.88342e-06 3.53472e-06
4.63052e-05 -9.54041e-06 1.3806e-06
3.38946e-05 -3.55607e-06 -2.47679e-07
9.4363e-05 -0.000124768 2.05043e-05
-0.00127 -0.000608275 -0.000688302
1.63339e-05 2.35006e-07 -2.81128e-07
-0.000426654 -0.000354699 0.000106742
5.71327e-05 -5.61684e-05 1.04872e-05
1.07316e-05 -8.85993e-06 6.64119e-07
1.97654e-05 -0.000105921 1.00906e-05
0.000100362 -0.000304791 2.19337e-05
8.67159e-05 -0.000147953 1.7566e-05
1.02476e-05 -4.13134e-05 -2.33511e-06
3.29778e-05 -3.8574e-07 1.28515e-06
-8.86719e-06 -1.05868e-05 -1.17668e-06
5.93836e-05 -7.90608e-05 1.02104e-05
9.59513e-05 -8.18108e-05 1.61192e-05
-8.90582e-06 -0.000100641 6.05372e-06
1.17764e-05 -4.30132e-06 -9.29434e-07
3.64831e-07 -7.63749e-06 9.8097e-09
-5.76456e-06 -1.07394e-05 -2.21757e-06
5.5862e-05 -3.55207e-05 5.81709e-06
2.89407e-05 -1.16696e-05 -1.30929e-06
-0.00215283 -0.00081294 -0.000236356
4.13234e-05 -3.39286e-05 2.88353e-06
6.11439e-06 3.89298e-07 -6.90938e-07
8.75156e-05 -4.91626e-05 1.07497e-05
0.000115815 -4.96122e-05 1.51923e-05
8.46617e-05 -2.74783e-05 8.52245e-06
6.04293e-05 -2.60741e-05 5.27322e-06
0.000141364 -0.000110275 2.30347e-05
5.32784e-05 -7.13646e-06 3.22792e-06
-0.000492324 0.000817701 -0.000624323
1.27036e-05 9.01481e-07 -2.49112e-07
-0.000377203 0.000626231 -0.000462855
0.00153001 8.9667e-05 2.95913e-05
7.67221e-05 -0.000648724 0.000118594
2.13012e-05 -1.65198e-06 -5.12555e-07
1.4501e-05 -2.75764e-06 -3.28745e-07
8.57308e-05 -3.97791e-05 7.27732e-06
7.53769e-05 -2.39196e-05 5.39316e-06
7.14039e-06 -4.05975e-05 3.94138e-06
3.70265e-05 -0.000323017 2.90646e-05
-8.31868e-06 -5.93914e-05 1.92971e-06
1.81216e-05 -8.9498e-05 5.65665e-06
2.38262e-05 -5.57957e-05 6.43437e-06
-0.000441699 -0.000576594 -4.25993e-05
0.000184958 -8.97639e-05 1.92433e-05
1.34381e-05 -4.74561e-05 -8.24105e-07
6.86593e-05 -7.09183e-05 8.2185e-06
1.79371e-05 -3.59131e-06 1.403e-06
0.000183801 -9.96459e-05 2.52331e-05
2.98729e-06 -3.42954e-06 -8.26745e-07
-8.35321e-06 -5.18412e-05 -5.46752e-08
0.000216936 -8.53121e-05 2.42085e-05
-1.37161e-05 -0.000106899 7.75908e-06
8.11524e-06 -0.000106404 5.91275e-06
3.52467e-06 -7.30417e-07 -3.35059e-07
8.90379e-05 -3.65281e-05 1.12312e-05
0.000193732 -5.45902e-05 1.98321e-05
0.000136201 -5.47185e-05 1.53185e-05
0.000972204 7.59948e-05 0.000956407
1.32493e-05 -6.06415e-05 5.23578e-06
2.43743e-05 -4.31315e-06 -1.12507e-06
6.6297e-05 -4.51483e-05 1.10645e-05
0.000166826 -0.000137938 2.46629e-05
0.000127891 -3.55101e-05 1.62344e-05
-1.18135e-05 -4.27045e-05 1.7156e-06
1.90238e-05 -0.000128414 1.33864e-05
6.37739e-05 -0.000125139 1.56908e-05
4.29363e-07 -2.31896e-06 -1.55427e-06
-0.000458987 -0.000223009 -0.000299952
-1.35187e-07 -1.02381e-06 -6.66439e-07
4.82217e-05 -4.68979e-05 8.2994e-06
0.00010394 -2.60788e-05 1.17074e-05
-0.000245406 0.000629337 0.000913153
5.85995e-06 -7.78188e-07 -8.51686e-08
0.000136339 -3.31645e-05 1.01868e-05
5.84639e-05 -3.45075e-05 8.726e-06
7.79269e-05 -6.37338e-05 1.31943e-05
-4.155e-06 -3.86564e-05 2.20546e-06
2.63749e-05 -4.80562e-05 6.47637e-06
-0.00169847 0.000595392 7.33673e-05
1.09669e-05 -3.3482e-07 4.57987e-07
-0.000310501 -0.000429775 -9.76973e-06
-2.15087e-06 -4.63367e-05 2.41149e-06
5.45276e-05 -4.57573e-05 9.45194e-06
0.000156161 -0.000113198 2.37064e-05
7.89914e-05 -9.64672e-05 1.59513e-05
-2.23096e-06 -4.04316e-05 3.04703e-06
-7.05237e-06 -4.07953e-05 2.57014e-06
7.07147e-06 -7.29644e-05 7.57821e-06
0.000804984 -0.000573661 7.44304e-05
-2.68134e-05 -6.36632e-05 9.38788e-07
-6.31744e-06 -1.74176e-05 -1.04926e-06
0.000200244 -0.000194263 2.96327e-05
5.65647e-05 -8.20593e-05 1.11266e-05
2.73642e-05 -7.87167e-06 2.19225e-06
4.91285e-05 -5.5058e-06 3.55579e-06
9.38224e-07 -5.64306e-07 -4.45447e-07
0.000200894 0.00065079 -0.000235022
2.95072e-05 -3.6644e-05 5.83345e-06
7.99715e-05 -3.03196e-05 1.02677e-05
5.37586e-05 -3.67756e-05 8.0895e-06
-0.000623475 0.00070799 -0.000211978
0.000460634 -0.000318586 -0.0001462
2.51735e-05 -2.47393e-05 4.48662e-06
3.21374e-05 -9.13677e-05 1.12963e-05
-5.85231e-06 -1.11103e-05 -4.99605e-07
2.83095e-05 -5.39814e-06 1.72054e-06
9.32675e-06 -3.53899e-05 1.07435e-06
1.95117e-05 -1.34151e-05 2.63326e-06
5.94337e-05 -5.87862e-05 1.09433e-05
4.60874e-05 -4.06404e-05 7.98965e-06
3.12236e-05 -4.1031e-05 3.87158e-06
2.87494e-05 -2.04943e-06 1.19987e-06
7.74995e-05 -2.88235e-05 1.07294e-05
5.75991e-05 -2.18644e-05 8.4458e-06
4.07812e-05 -1.23241e-05 4.2179e-06
0.00011554 -6.47755e-05 1.44077e-05
-2.20726e-06 -3.54978e-05 7.70167e-07
1.63201e-05 -6.82132e-06 1.24479e-06
2.54299e-05 -1.52759e-05 2.99904e-06
6.22871e-06 -6.37484e-06 8.98799e-07
5.99375e-05 -3.29562e-05 8.87155e-06
-5.66767e-06 -6.75249e-06 -7.34587e-07
6.45219e-05 -7.02377e-05 1.17287e-05
-0.000723577 -5.55316e-07 0.000427349
4.20335e-05 -9.08625e-05 1.24632e-05
5.20081e-05 -5.97784e-05 7.91976e-06
3.93241e-05 -8.76484e-05 8.62706e-06
-0.000641319 0.000518437 -0.000588996
1.28929e-05 -3.85301e-06 6.87805e-07
-1.06297e-05 -3.91709e-05 1.72388e-06
1.39448e-05 -7.38673e-05 7.69413e-06
2.33721e-05 -4.92081e-05 6.61455e-06
7.76883e-05 -2.82336e-05 7.7046e-06
0.000112264 -4.17723e-05 9.13246e-06
6.21968e-05 -2.03628e-05 6.39828e-06
7.40671e-05 -3.43249e-05 8.8709e-06
1.79036e-05 -5.15617e-06 1.43475e-06
2.70984e-05 -7.4418e-06 1.32409e-06
-3.17091e-06 -6.46114e-06 -7.4984e-07
-5.51157e-06 -8.35438e-06 -5.95616e-07
3.83551e-05 -5.33789e-05 7.2571e-06
8.9311e-05 -1.50915e-05 8.16687e-06
3.60795e-05 -5.58731e-05 8.0506e-06
4.32773e-05 -2.10877e-05 5.25573e-06
9.45123e-05 -4.40739e-05 1.4006e-05
-0.000952185 0.000596752 -3.22034e-05
1.76357e-05 -1.46878e-07 7.04854e-07
-0.000364947 -0.000553504 -0.000512637
4.00476e-05 -6.67493e-06 3.80862e-06
6.68045e-05 -1.30255e-05 6.84688e-06
7.52847e-05 -3.41364e-05 5.87628e-06
3.37245e-05 -2.68063e-05 4.39695e-06
-8.36784e-06 -3.38879e-05 9.52479e-07
-8.929e-06 -2.76261e-05 2.00945e-07
1.03753e-05 2.3883e-09 2.89518e-07
1.98963e-05 -4.05066e-05 3.21955e-06
3.36327e-05 -5.79306e-05 8.36267e-06
9.42511e-05 -4.02273e-05 1.11595e-05
1.02841e-05 -2.47606e-05 2.6663e-06
-2.58227e-06 -6.0515e-06 -1.27442e-06
1.29135e-05 -5.85472e-05 6.87782e-06
3.52254e-05 -6.71409e-06 7.995e-08
2.76155e-05 -1.69581e-05 2.96403e-06
7.71725e-05 -5.36768e-05 1.11362e-05
5.2598e-05 -1.9633e-05 5.68072e-06
4.29046e-05 -7.26052e-05 1.03869e-05
5.21567e-05 -1.46394e-05 5.46251e-06
-1.01604e-05 -5.27242e-05 2.58376e-06
3.5993e-05 -4.95256e-06 2.63107e-06
0.000476339 2.66819e-05 -0.000345954
2.61719e-05 -1.27449e-05 2.80866e-06
-9.55189e-06 -2.3531e-05 -1.83306e-07
6.15389e-05 -1.69625e-05 1.43093e-06
4.73575e-05 -1.20812e-05 3.89489e-06
-7.72728e-06 -1.64925e-05 -3.11083e-07
5.15527e-05 -1.80801e-05 1.71439e-06
-0.00149691 -1.41031e-06 -5.29502e-05
0.000108019 -1.33522e-05 -0.000373796
3.33901e-05 -8.31482e-06 3.20928e-06
9.81334e-05 -3.41433e-05 8.26408e-06
-3.32125e-06 -1.5853e-05 -6.26371e-08
4.65638e-05 -5.4289e-05 8.87128e-06
7.04711e-05 -1.70205e-05 2.60427e-06
2.38793e-05 -2.40015e-05 3.86741e-06
5.95252e-05 -5.95617e-05 1.06863e-05
-0.000584567 1.54889e-05 -0.000326539
6.8649e-05 -3.67237e-05 1.0094e-05
-5.8192e-07 -3.62944e-06 -9.48327e-08
-0.000464414 0.000376572 -0.000210223
1.86902e-05 -8.20503e-06 2.30653e-06
-0.0019193 -0.000758758 0.00039812
7.26201e-05 -5.31025e-05 1.26803e-05
3.95427e-05 -3.09721e-05 6.76046e-06
2.07733e-05 -2.05228e-05 -0.000279707
1.61511e-05 -1.49615e-05 2.96816e-07
7.16612e-05 0.000323744 0.000188291
-3.75725e-09 -2.04311e-05 1.49283e-06
2.6283e-05 -1.80697e-05 4.18207e-06
4.24523e-05 -6.3312e-06 3.58935e-06
2.48285e-05 -6.52114e-05 8.04252e-06
-8.22517e-07 -7.64766e-06 -8.75211e-08
0.000663546 0.000706602 0.00036988
3.57337e-05 -2.13617e-05 1.21953e-07
-3.82817e-06 -7.80209e-06 -9.26554e-08
-1.4322e-06 -2.09181e-05 1.84617e-06
0.000572368 0.000652775 0.000308164
7.31035e-05 -3.30164e-05 1.13846e-05
7.13047e-05 -4.41682e-05 1.22478e-05
-7.56469e-07 -2.12885e-05 1.75713e-06
1.59184e-05 -1.73421e-05 2.80275e-06
2.37895e-06 -5.9422e-07 -6.0893e-07
-0.0007502 -0.00117289 0.000480112
0.000275879 -0.000667676 -0.000367889
0.000246607 -0.000110594 -0.000429094
6.60153e-05 -3.12122e-05 9.86559e-06
2.44797e-05 -1.47666e-05 3.93107e-06
4.31652e-05 -9.81691e-06 3.65088e-06
1.69742e-05 -2.05846e-05 3.76917e-06
-0.000154294 0.000175071 -8.09675e-05
-0.000637319 -0.00075432 -0.000269403
-3.38419e-07 -1.13296e-06 -6.84847e-07
2.1397e-06 -1.18562e-06 -2.13607e-07
6.33626e-05 -4.08069e-05 1.03059e-05
8.07737e-06 -1.17436e-06 -9.25547e-08
-0.000299889 -0.000537556 0.000319429
5.81706e-05 -4.92436e-05 1.03202e-05
2.33554e-05 -6.85762e-06 2.83649e-06
1.39997e-05 -6.42514e-05 4.32496e-06
7.46919e-06 -5.99503e-07 6.78841e-07