# vtk DataFile Version 4.2
vtk output
ASCII
DATASET UNSTRUCTURED_GRID

POINTS 343 double
0.00112144 0.00419491 1.03448e-07
0.00216919 0.00498258 0.00217524
0 0.00419538 0.00112517
0.00192864 0.00195448 0.00194208
0.005167 0.00240722 0.00503093
0.0051704 0.00383048 0.00639597
0.00761867 0.00477623 0.00499564
0.00622025 0.00485099 0.00368984
0.00683442 0.00328926 0.006911
0.00498823 0.00499295 0.00499859
0.00418125 0.00111834 0.00999761
0.00528047 0.00208065 0.00790208
0.00419032 -7.28565e-06 0.00831581
0.00201199 0.00200252 0.00803311
0.00428685 0.00253318 0.00999758
0.00695419 0.00644754 0.00694381
0.00641017 0.00618308 0.00518077
0.00225952 0.00218469 0.00514593
0 0.00143586 0.00417514
0.00159357 0.00346615 0.004037
0.00683239 0.00319455 0.00315915
0.00774198 0.00221375 0.0050605
0 0.00270918 0.00154168
0.00415411 0.00142868 -5.77905e-07
0.00500385 0.00218814 0.00219673
0.00395892 0.00352696 0.00160233
0.00134471 -6.6411e-07 0.00405996
0.00418013 -7.78667e-06 0.00168742
0.00262293 0.00695173 -9.09122e-08
0.0019363 0.00805273 0.00194482
0.00408355 0.0062483 0.00164429
0.0080009 0.00798683 0.00799289
0.00796346 0.00481642 0.00801796
0.00838467 0.00608047 0.00594365
0.00999286 0.0088264 0.00418641
0.00757241 0.00763643 0.00496037
0.00856097 0.00998058 0.00416233
0.00796935 0.00797186 0.00201261
0.00353496 0.00303674 0.00695885
0.00443697 0.00366224 0.0083225
0.003891 0.00160069 0.00596834
0.00500387 0.0076687 0.0076749
0.00198875 0.00800796 0.0079895
0.0028258 0.0099973 0.0071268
0.00391415 0.00839973 0.00595706
0 0.00695361 0.00262895
0.00164527 0.0062393 0.00408783
0 0.0040177 0.00850214
0.0023142 0.00498576 0.00766128
0.00143312 0.00417449 0.0099999
0.00717486 0.00711878 0.0099939
0.00611725 0.0059713 0.00841452
0.00205034 0.00794143 0.00474173
0.00304208 0.00694302 0.00646732
0.00158608 0.00607837 0.00592593
0.00998721 0.0057847 0.00830821
0 0.00718191 0.00711644
0.00158284 0.00577348 1.95423e-08
0 0.00577432 0.00158701
0.00999066 0.00715838 0.00710787
0.00286805 0.00334945 0.009999
0.00996537 0.0014097 0.00416856
0.00803013 0.00194346 0.00197565
0.00838446 0.0035028 0.00399426
0.00372379 0.00164816 0.00412779
0.00150824 0.00999963 0.00581497
0.00280906 -3.57769e-06 0.00712734
0.00610921 0.00417198 0.00837301
0.00998696 0.00725037 0.00418873
0.0085245 -2.17289e-05 0.00416326
0.00333806 0.00286979 -3.18004e-07
0.00270106 0.00153893 0.00999907
0.00281677 -4.01638e-06 0.00283176
0.00479673 0.00519442 0.00755256
0.00315604 0.00314642 0.003167
0 0.00849157 0.00581511
0.00486158 0.00366985 0.00378506
0.00153561 0.00270866 1.74479e-08
0.00579967 0.00831648 0.00999554
0.00598326 0.00998965 0.00850203
0.0042127 0.00999422 0.00831587
0.00401769 0.00849863 0.00999754
0.00999373 0.00846777 0.00580712
0.00314479 0.00683366 0.00315051
0 0.00748929 0.00137438
0.00137181 0.00748895 3.78241e-08
0 0.00287343 0.00335182
0 0.00580816 0.00831736
0 0.00429792 0.00253898
0.00253062 0.00429599 -6.99797e-08
0.00143373 0.00581918 0.00999991
0.00517312 0.006469 0.00639841
0.00360257 0.00650956 0.00823282
0.00693338 0.00261362 0.00999445
0.00799884 0.00194043 0.00802961
0.0069377 -1.62953e-05 0.00307933
0.00599709 0.00165281 0.00361087
0.00996952 0.00284825 0.00334559
0 0.00140616 0.00256446
0.00637037 0.00821728 0.00641769
0.00579085 0.00142357 -1.24649e-06
0.00601671 0.00354145 0.00160131
0.00315487 0.00999659 0.00582462
0.00855785 0.0099808 0.00582715
0.00255141 0.00140306 -9.59236e-08
0.00594537 -1.30215e-05 0.0014927
0.00627517 0.00827726 0.0036148
0.00852149 -2.15293e-05 0.00582777
0.0061851 0.00166097 0.00636228
0.00140226 0.00256404 0.00999995
0.00710308 0.00716842 -2.81161e-06
0.00515987 0.00768266 0.00216741
0.00593042 0.00608434 0.00159992
0 0.00686719 0.00578184
0.00996311 0.00137975 0.00255867
0.00177154 0.00360991 0.00640774
0.0099895 0.00846274 0.00261722
0.00839804 0.00617141 0.0041279
0.00597612 0.00998896 0.0014916
0.00694102 -1.5906e-05 0.00692242
0.00996764 0.00140954 0.00581216
0.00837647 0.00355476 0.00605527
0.00150137 -8.06259e-07 0.00581514
0 0.0013659 0.00748679
0.00136344 -6.46738e-07 0.0075289
0.00998761 0.00684355 0.00577396
0.00580777 0.00848162 -1.87484e-06
0 0.0075208 0.00859127
0.00136492 0.0074865 0.00999979
0.00422722 0.00820056 0.00362741
0.00859299 0.00998069 0.0075052
0.00999672 0.00860656 0.00751745
0.00575657 0.00157601 0.00999582
0.00724629 0.00417427 0.00999399
0 0.0057735 0.00666667
0.00136954 0.00999955 0.0075289
0 0.00863025 0.00752641
0.00854896 -2.21956e-05 0.00250336
0.00998371 0.0069296 0.0026226
0.00844321 0.00632386 0.00215856
0.00850047 0.005806 0.0099923
0.00746703 0.00135753 0.00999362
0.00855647 -2.17088e-05 0.00750544
0.00996965 0.00134003 0.00747826
0 0.00143551 0.00581971
0.0059528 -1.24223e-05 0.00850206
0.00419086 -7.77624e-06 0.0033992
0.00791338 0.00469104 0.00203085
0.00997368 0.00427347 0.00253296
0.0042292 0.009994 0.00666502
0.00283361 0.00999737 0.00283159
0.00130617 -7.32492e-07 0.00241833
0 0.00727418 0.00419576
0.00998473 0.00574995 0.00665836
0.00697118 0.0099859 0.00307833
0.00750823 0.00862229 0.00999343
0 0.00574334 0.00336387
0 0.0043297 0.00416652
0.00686253 0.00577226 0.00999445
0.00997494 0.00299744 0.006907
0.00420541 -7.50123e-06 0.00666542
0.00247955 0.00999767 0.00861091
0.00745238 0.00134832 -2.53817e-06
0.00577072 0.00665819 0.00999556
0.00999402 0.00749738 0.00858188
0.00860547 0.00753547 0.00999207
0.0068879 0.00300797 -2.09493e-06
0.00335474 0.0057406 -2.56413e-07
0.00751707 0.00861479 -3.38023e-06
0.00751122 0.00998373 0.00138367
0.00576986 0.00685811 -1.78403e-06
0.0069624 0.00635821 0.00303036
0.00747661 -1.85845e-05 0.00138494
0.00288079 0.00499734 0.00999885
0.00432597 0.00582899 0.00999727
0.00432212 0.0041619 0.00999734
0.00752005 0.00998437 0.00860988
0.00246507 -2.95408e-06 0.00861117
0.00998002 0.00571946 0.00335741
0 0.00302218 0.00691532
0.00998075 0.00399369 0.008493
0.00847419 0.00399831 -3.60337e-06
0.0099666 0.00268363 0.00153626
0 0.00244495 0.00857025
0.00244591 0.00856835 0.00999891
0.00748556 -1.79127e-05 0.00860985
0.00846706 0.0026046 0.00999234
0.00883613 0.00417419 0.00999185
0.0056719 0.00999022 0.00583064
0.00518146 0.00757632 0.00503051
0.00564254 0.00999016 0.00421301
0.00697436 0.00998625 0.00692202
0.00302079 0.00691344 0.00999852
0.00415236 0.00432492 -5.46881e-07
0.00282016 -4.09197e-06 0.00440445
0.00313671 -4.56688e-06 0.00582512
0.00997155 0.00417061 0.00111974
0.00363379 0.00833341 0.00158756
0.00997597 0.00430541 0.00415974
0.00664922 0.00576155 -2.13802e-06
0.00858562 0.00998021 0.0025021
0 0.00848692 0.00262374
0.00135095 0.00999964 0.00405983
0 0.00885053 0.00419359
0.00418917 0.00884459 -8.89269e-07
0.00420355 0.00999384 0.00168669
0.00498545 0.00478484 0.0023776
0.00719651 0.00450732 -2.45353e-06
0.00561348 -1.19264e-05 0.00421388
0.00564294 -1.1826e-05 0.00583115
0.00131225 0.00999965 0.00241807
0.00853645 0.00242439 -3.50929e-06
0.00998087 0.00449783 0.00721103
0.00711537 0.00998563 0.00499619
0.005731 0.00335478 0.00999587
0.00244376 -3.31115e-06 0.00135653
0.00997503 0.00241987 0.00856119
0.0023903 0.00478986 0.00499969
0.0058134 0.00432042 -1.44079e-06
0.00829642 0.00579006 -3.74937e-06
0.00548212 0.00999094 0.00721751
0.00997822 0.00430602 0.0058256
0.00540164 0.00999071 0.0027737
0.00708157 -1.65365e-05 0.00499696
0.00283653 0.00999738 0.00440405
0 0.00452174 0.00721958
0.00452027 0.00721494 0.00999704
0.00545375 -1.10361e-05 0.00721755
0.00359528 0.0050707 0.00359601
0.00425286 0.00999395 0.00500696
0.00422844 -7.71211e-06 0.00500769
0.00366442 0.00521369 0.00617378
0 0.005744 0.00499998
0 0.00433013 0.00583333
0.00498656 0.00573754 -1.03156e-06
0.00497621 0.00633282 0.00355247
0.00537319 -1.13144e-05 0.00277464
0.00998228 0.00572033 0.00499261
0.00368531 0.00640462 0.00484326
0.00573647 0.00499187 0.00999575
0.00997791 0.00575019 0.00158127
0 0.00666667 0
0.00857613 0.00750191 -4.30737e-06
0.00331308 -6.04727e-06 2.77753e-07
0 0.01 0.00666667
0.00500604 0.00999196 0.00999669
0 0.00288419 0.00499914
0.00998417 0.00746513 0.00136853
0.00997948 0.00664247 -5.67908e-06
0 0.005 0.01
0.00497791 0.00287613 -9.48708e-07
0 0.005 0
0.00995888 -2.73689e-05 0.00332735
0.0100008 0.00997528 0.00665804
0.00418771 0.00726929 -7.93259e-07
0.00997172 0.00285924 0.00499198
0.00497104 -1.07375e-05 -3.93332e-07
0 0 0.00666667
0.00378846 0.00361294 0.00522562
0.00498005 -1.01716e-05 0.00999623
0.0099634 -2.70688e-05 0.00665865
0 0 0.005
0.00877512 0.00997927 0.00121516
0.00998887 0.00875532 0.00121405
0.00996109 -2.71811e-05 0.00499301
0.00997329 0.0049753 -5.38544e-06
0.0012145 0.00121928 -7.86978e-09
0 0.00122008 0.00122008
0 0.00333333 0.01
0 0.00666667 0.01
0.00876924 0.00875972 -4.70393e-06
0.00999624 0.00997485 0.0033263
0.00421506 0.00999392 0.00339861
0.00999275 0.00664338 0.00999025
0 0.00333333 0
0 0.00122008 0.00877992
0.00121483 -8.15099e-07 0.0087796
0.0012161 0.00121953 0.0100001
0.00878502 0.00997997 0.00877212
0.00121968 0.0087795 0.00999981
0 0.00877992 0.00877992
0.00999909 0.00875617 0.00877045
0.00666285 0.00998638 -3.02846e-06
0.00996064 0.0011933 0.00121495
0.00122042 0.00999942 0.00877995
0.00878234 0.0087607 0.00999185
0.00998651 0.00497639 0.0099903
0 0 0.00333333
0.00663028 -1.58047e-05 -1.44965e-06
0.00873826 -2.31381e-05 0.00121655
0.00120507 -9.19716e-07 0.00121201
0 0.00877992 0.00122008
0.00121842 0.00877936 8.62964e-08
0.00121086 0.00999949 0.00121136
0.0099708 0.00119401 0.00877062
0.00875438 0.00119841 0.00999182
0.00664175 -1.52698e-05 0.00999408
0.00874121 0.00119768 -3.55973e-06
0.00874833 -2.25e-05 0.008772
0.00996715 0.00330801 -5.13708e-06
0.00333772 0.00999574 0.00999855
0.00245856 0.00999791 0.00135607
0.00667398 0.00998723 0.00999473
0.0099803 0.00330903 0.00999031
0 0.01 0.005
0.00262026 0.00848465 -1.3603e-07
0.00999844 0.00997508 0.00499231
0 0.01 0.00333333
0 0.00166667 0
0.00995672 -2.76451e-05 0.00166155
0 0.00166667 0.01
0 0.00833333 0
0.00998585 0.00830872 -5.90892e-06
0.0099657 -2.70948e-05 0.00832411
0.00999411 0.00997463 0.00166032
0.010003 0.00997535 0.00832399
0.0016685 0.00999851 0.00999962
0 0.01 0.00833333
0.00832784 0.00998064 -4.51572e-06
0.00829151 -2.18649e-05 -2.92129e-06
0.00830441 -2.1208e-05 0.00999206
0.00834038 0.00998139 0.00999251
0 0 0.00833333
0.00999911 0.00830976 0.00999018
0.00165645 -2.17076e-06 1.40294e-07
0 0 0.00166667
0.00333245 0.00999582 -5.65587e-07
0.00997412 0.0016408 0.00999023
0.0099609 0.00164 -4.95151e-06
0.00165921 -1.73128e-06 0.00999974
0.00166623 0.00999879 -7.8358e-08
0 0.01 0.00166667
0.0100054 0.00997546 0.00999025
0 0 0.01
0.00999212 0.00997441 -6.2557e-06
0.00996795 -2.72259e-05 0.00998991
0 0.01 0.01
0.00995469 -2.78246e-05 -4.6559e-06
0 0.01 0
0 0 0
0.00499765 0.00999144 -1.6083e-06
0.00331946 -5.48567e-06 0.00999801
0 0.00833333 0.01

CELLS 343 686
1 0
1 1
1 2
1 3
1 4
1 5
1 6
1 7
1 8
1 9
1 10
1 11
1 12
1 13
1 14
1 15
1 16
1 17
1 18
1 19
1 20
1 21
1 22
1 23
1 24
1 25
1 26
1 27
1 28
1 29
1 30
1 31
1 32
1 33
1 34
1 35
1 36
1 37
1 38
1 39
1 40
1 41
1 42
1 43
1 44
1 45
1 46
1 47
1 48
1 49
1 50
1 51
1 52
1 53
1 54
1 55
1 56
1 57
1 58
1 59
1 60
1 61
1 62
1 63
1 64
1 65
1 66
1 67
1 68
1 69
1 70
1 71
1 72
1 73
1 74
1 75
1 76
1 77
1 78
1 79
1 80
1 81
1 82
1 83
1 84
1 85
1 86
1 87
1 88
1 89
1 90
1 91
1 92
1 93
1 94
1 95
1 96
1 97
1 98
1 99
1 100
1 101
1 102
1 103
1 104
1 105
1 106
1 107
1 108
1 109
1 110
1 111
1 112
1 113
1 114
1 115
1 116
1 117
1 118
1 119
1 120
1 121
1 122
1 123
1 124
1 125
1 126
1 127
1 128
1 129
1 130
1 131
1 132
1 133
1 134
1 135
1 136
1 137
1 138
1 139
1 140
1 141
1 142
1 143
1 144
1 145
1 146
1 147
1 148
1 149
1 150
1 151
1 152
1 153
1 154
1 155
1 156
1 157
1 158
1 159
1 160
1 161
1 162
1 163
1 164
1 165
1 166
1 167
1 168
1 169
1 170
1 171
1 172
1 173
1 174
1 175
1 176
1 177
1 178
1 179
1 180
1 181
1 182
1 183
1 184
1 185
1 186
1 187
1 188
1 189
1 190
1 191
1 192
1 193
1 194
1 195
1 196
1 197
1 198
1 199
1 200
1 201
1 202
1 203
1 204
1 205
1 206
1 207
1 208
1 209
1 210
1 211
1 212
1 213
1 214
1 215
1 216
1 217
1 218
1 219
1 220
1 221
1 222
1 223
1 224
1 225
1 226
1 227
1 228
1 229
1 230
1 231
1 232
1 233
1 234
1 235
1 236
1 237
1 238
1 239
1 240
1 241
1 242
1 243
1 244
1 245
1 246
1 247
1 248
1 249
1 250
1 251
1 252
1 253
1 254
1 255
1 256
1 257
1 258
1 259
1 260
1 261
1 262
1 263
1 264
1 265
1 266
1 267
1 268
1 269
1 270
1 271
1 272
1 273
1 274
1 275
1 276
1 277
1 278
1 279
1 280
1 281
1 282
1 283
1 284
1 285
1 286
1 287
1 288
1 289
1 290
1 291
1 292
1 293
1 294
1 295
1 296
1 297
1 298
1 299
1 300
1 301
1 302
1 303
1 304
1 305
1 306
1 307
1 308
1 309
1 310
1 311
1 312
1 313
1 314
1 315
1 316
1 317
1 318
1 319
1 320
1 321
1 322
1 323
1 324
1 325
1 326
1 327
1 328
1 329
1 330
1 331
1 332
1 333
1 334
1 335
1 336
1 337
1 338
1 339
1 340
1 341
1 342

CELL_TYPES 343
1
1
1
1
1
1
1
1
1
1
1
1
1
1
1
1
1
1
1
1
1
1
1
1
1
1
1
1
1
1
1
1
1
1
1
1
1
1
1
1
1
1
1
1
1
1
1
1
1
1
1
1
1
1
1
1
1
1
1
1
1
1
1
1
1
1
1
1
1
1
1
1
1
1
1
1
1
1
1
1
1
1
1
1
1
1
1
1
1
1
1
1
1
1
1
1
1
1
1
1
1
1
1
1
1
1
1
1
1
1
1
1
1
1
1
1
1
1
1
1
1
1
1
1
1
1
1
1
1
1
1
1
1
1
1
1
1
1
1
1
1
1
1
1
1
1
1
1
1
1
1
1
1
1
1
1
1
1
1
1
1
1
1
1
1
1
1
1
1
1
1
1
1
1
1
1
1
1
1
1
1
1
1
1
1
1
1
1
1
1
1
1
1
1
1
1
1
1
1
1
1
1
1
1
1
1
1
1
1
1
1
1
1
1
1
1
1
1
1
1
1
1
1
1
1
1
1
1
1
1
1
1
1
1
1
1
1
1
1
1
1
1
1
1
1
1
1
1
1
1
1
1
1
1
1
1
1
1
1
1
1
1
1
1
1
1
1
1
1
1
1
1
1
1
1
1
1
1
1
1
1
1
1
1
1
1
1
1
1
1
1
1
1
1
1
1
1
1
1
1
1
1
1
1
1
1
1
1
1
1
1
1
1
1
1
1
1
1
1
1
1
1
1
1
1
1
1
1
1
1
1
1
1
1
1
1
1
1
1
1
1
1
1

POINT_DATA 343
FIELD FieldData 8

NodeID_(#) 1 343 int
0
1
2
3
4
5
6
7
8
9
10
11
12
13
14
15
16
17
18
19
20
21
22
23
24
25
26
27
28
29
30
31
32
33
34
35
36
37
38
39
40
41
42
43
44
45
46
47
48
49
50
51
52
53
54
55
56
57
58
59
60
61
62
63
64
65
66
67
68
69
70
71
72
73
74
75
76
77
78
79
80
81
82
83
84
85
86
87
88
89
90
91
92
93
94
95
96
97
98
99
100
101
102
103
104
105
106
107
108
109
110
111
112
113
114
115
116
117
118
119
120
121
122
123
124
125
126
127
128
129
130
131
132
133
134
135
136
137
138
139
140
141
142
143
144
145
146
147
148
149
150
151
152
153
154
155
156
157
158
159
160
161
162
163
164
165
166
167
168
169
170
171
172
173
174
175
176
177
178
179
180
181
182
183
184
185
186
187
188
189
190
191
192
193
194
195
196
197
198
199
200
201
202
203
204
205
206
207
208
209
210
211
212
213
214
215
216
217
218
219
220
221
222
223
224
225
226
227
228
229
230
231
232
233
234
235
236
237
238
239
240
241
242
243
244
245
246
247
248
249
250
251
252
253
254
255
256
257
258
259
260
261
262
263
264
265
266
267
268
269
270
271
272
273
274
275
276
277
278
279
280
281
282
283
284
285
286
287
288
289
290
291
292
293
294
295
296
297
298
299
300
301
302
303
304
305
306
307
308
309
310
311
312
313
314
315
316
317
318
319
320
321
322
323
324
325
326
327
328
329
330
331
332
333
334
335
336
337
338
339
340
341
342

Component_(#) 1 343 int
0
0
0
0
0
0
0
0
0
0
0
0
0
0
0
0
0
0
0
0
0
0
0
0
0
0
0
0
0
0
0
0
0
0
0
0
0
0
0
0
0
0
0
0
0
0
0
0
0
0
0
0
0
0
0
0
0
0
0
0
0
0
0
0
0
0
0
0
0
0
0
0
0
0
0
0
0
0
0
0
0
0
0
0
0
0
0
0
0
0
0
0
0
0
0
0
0
0
0
0
0
0
0
0
0
0
0
0
0
0
0
0
0
0
0
0
0
0
0
0
0
0
0
0
0
0
0
0
0
0
0
0
0
0
0
0
0
0
0
0
0
0
0
0
0
0
0
0
0
0
0
0
0
0
0
0
0
0
0
0
0
0
0
0
0
0
0
0
0
0
0
0
0
0
0
0
0
0
0
0
0
0
0
0
0
0
0
0
0
0
0
0
0
0
0
0
0
0
0
0
0
0
0
0
0
0
0
0
0
0
0
0
0
0
0
0
0
0
0
0
0
0
0
0
0
0
0
0
0
0
0
0
0
0
0
0
0
0
0
0
0
0
0
0
0
0
0
0
0
0
0
0
0
0
0
0
0
0
0
0
0
0
0
0
0
0
0
0
0
0
0
0
0
0
0
0
0
0
0
0
0
0
0
0
0
0
0
0
0
0
0
0
0
0
0
0
0
0
0
0
0
0
0
0
0
0
0
0
0
0
0
0
0
0
0
0
0
0
0
0
0
0
0
0
0
0
0
0
0
0
0
0
0
0
0
0
0
0
0
0
0
0
0

NodalMass_(kg) 1 343 double
3.15563e-06
1.41304e-05
2.20912e-06
1.71484e-05
8.42e-06
9.09306e-06
9.93033e-06
7.52198e-06
6.81096e-06
5.58223e-06
3.10888e-06
1.07575e-05
4.87011e-06
1.64955e-05
3.0246e-06
8.05984e-06
6.703e-06
1.0877e-05
4.18978e-06
8.16106e-06
6.14143e-06
1.17902e-05
2.23114e-06
4.25176e-06
1.09915e-05
7.41467e-06
4.21871e-06
3.92484e-06
3.08766e-06
1.31268e-05
7.72627e-06
1.65404e-05
1.19037e-05
7.29666e-06
3.81683e-06
1.11001e-05
3.81317e-06
1.39137e-05
6.37414e-06
8.00975e-06
7.6712e-06
1.18847e-05
1.6399e-05
2.78633e-06
8.93599e-06
2.58087e-06
7.57362e-06
4.23241e-06
1.31286e-05
3.80168e-06
2.7746e-06
7.16776e-06
1.21307e-05
5.11765e-06
8.19728e-06
4.58094e-06
2.79503e-06
3.26126e-06
4.12443e-06
2.11915e-06
3.35177e-06
3.61669e-06
1.56838e-05
7.33679e-06
8.24695e-06
5.00369e-06
2.82625e-06
7.20276e-06
3.26815e-06
4.18751e-06
2.02785e-06
2.42152e-06
3.11835e-06
5.97459e-06
5.87101e-06
4.09374e-06
5.45463e-06
2.28825e-06
4.49759e-06
4.38192e-06
4.50892e-06
4.39234e-06
4.27273e-06
5.32031e-06
1.53201e-06
2.38869e-06
2.02885e-06
4.38798e-06
3.17972e-06
3.14298e-06
4.61567e-06
5.87645e-06
8.18088e-06
2.48341e-06
1.53815e-05
3.49683e-06
7.35227e-06
2.01314e-06
2.0408e-06
7.98183e-06
4.41293e-06
7.1389e-06
1.20123e-06
5.03343e-06
1.61257e-06
4.12601e-06
8.73748e-06
4.37849e-06
7.97173e-06
2.13557e-06
3.38137e-06
9.48623e-06
7.40262e-06
1.80226e-06
2.10222e-06
7.98889e-06
1.87983e-06
7.44814e-06
4.19782e-06
2.37156e-06
4.31705e-06
6.06441e-06
4.30905e-06
2.16843e-06
1.8986e-06
1.81294e-06
3.89762e-06
2.44299e-06
1.65628e-06
8.01374e-06
1.64513e-06
2.3931e-06
3.01363e-06
2.99431e-06
1.36541e-06
1.87293e-06
2.09622e-06
1.94762e-06
1.87618e-06
6.37913e-06
4.58628e-06
2.02767e-06
1.61999e-06
2.41284e-06
3.8865e-06
4.44973e-06
2.29839e-06
1.17349e-05
3.11811e-06
1.354e-06
3.45063e-06
1.81846e-06
2.9382e-06
1.37381e-06
2.41464e-06
2.10451e-06
2.63927e-06
2.14166e-06
1.7943e-06
3.19976e-06
1.36989e-06
2.43489e-06
2.08158e-06
1.3601e-06
2.17203e-06
1.89924e-06
3.16996e-06
2.6119e-06
2.37677e-06
1.60225e-06
1.90684e-06
5.49206e-06
1.87878e-06
3.14313e-06
2.97301e-06
1.18454e-06
1.89263e-06
2.04166e-06
2.73572e-06
2.42405e-06
3.23083e-06
3.19752e-06
3.2142e-06
1.94492e-06
1.61196e-06
1.86876e-06
3.22435e-06
2.1114e-06
2.96917e-06
6.15288e-06
2.3097e-06
2.39729e-06
2.38029e-06
2.64508e-06
1.66557e-06
1.82377e-06
2.06583e-06
5.73271e-06
2.08467e-06
2.18324e-06
2.43522e-06
3.1188e-06
3.17316e-06
2.05447e-06
1.9592e-06
3.05718e-06
6.44327e-06
2.08796e-06
2.72615e-06
2.15709e-06
1.86812e-06
2.0028e-06
2.10999e-06
2.88994e-06
2.3222e-06
2.3979e-06
1.97629e-06
6.4127e-06
2.16225e-06
3.29198e-06
2.10223e-06
2.66566e-06
1.94415e-06
2.91865e-06
2.58116e-06
2.11703e-06
2.09534e-06
1.91719e-06
7.06046e-06
2.25203e-06
2.06378e-06
6.28159e-06
2.12147e-06
2.90924e-06
2.12921e-06
6.4487e-06
1.41701e-06
2.0682e-06
6.58062e-06
2.52584e-06
2.39732e-06
7.42191e-07
2.22368e-06
7.06751e-07
7.00657e-07
8.93749e-07
2.53536e-06
2.26535e-06
1.33607e-06
7.84725e-07
2.32303e-06
6.06694e-07
6.68276e-07
6.84307e-07
2.51242e-06
2.31629e-06
7.8367e-07
6.80839e-07
6.22692e-06
6.7471e-07
6.65305e-07
7.01158e-07
1.8232e-06
1.90695e-06
6.86722e-07
7.04792e-07
1.86445e-06
2.28572e-06
6.8045e-07
7.16005e-07
1.82373e-06
6.01079e-07
2.02791e-06
7.4579e-07
5.74423e-07
1.80052e-06
1.454e-06
2.2702e-06
1.80636e-06
2.15356e-06
1.79089e-06
1.79456e-06
6.8231e-07
2.24737e-06
1.45239e-06
1.79556e-06
6.97875e-07
6.24265e-07
6.62717e-07
1.44627e-06
1.40138e-06
2.15258e-06
1.82851e-06
1.3994e-06
1.43932e-06
2.19226e-06
6.97732e-07
1.77726e-06
1.79162e-06
6.54258e-07
7.3397e-07
2.34895e-06
7.10392e-07
6.56982e-07
6.26314e-07
2.18926e-06
6.12493e-07
6.03901e-07
5.92831e-07
5.12031e-07
5.11667e-07
4.9467e-07
4.97016e-07
4.96269e-07
5.33079e-07
4.94191e-07
4.97855e-07
4.86862e-07
4.90626e-07
4.94649e-07
4.94954e-07
4.91922e-07
4.89615e-07
4.96354e-07
4.95189e-07
4.82188e-07
1.10854e-06
5.3299e-07
5.44763e-07
5.36655e-07
5.15417e-07
5.01772e-07
5.53774e-07
5.53774e-07
5.53774e-07
5.53774e-07
5.53774e-07
5.53774e-07
5.50785e-07
5.50785e-07
7.45291e-07
7.11668e-07
4.9897e-07

NodalForce_(N) 3 343 double
6.9958e-07 -7.18155e-08 1.51036e-08
5.55659e-06 -1.31303e-06 1.06317e-06
0.000150064 0.000329874 0.000426836
1.46804e-06 -1.31518e-06 9.43274e-07
-3.87784e-06 -5.7355e-06 5.27166e-06
-4.77863e-06 -5.96575e-06 6.42388e-06
2.04691e-06 -1.36045e-05 1.5103e-05
5.0398e-06 -6.97657e-06 7.19728e-06
-6.55269e-06 -7.83881e-06 8.91142e-06
1.13589e-06 -3.33578e-06 3.3009e-06
-5.58317e-06 -1.56869e-06 2.00173e-06
-1.53944e-05 -7.97538e-06 9.24117e-06
-7.88767e-06 -2.44507e-06 2.84268e-06
-6.86385e-06 -1.27283e-06 1.40669e-06
-4.68199e-06 -1.50366e-06 2.0517e-06
-1.71444e-07 -9.38553e-06 1.09638e-05
3.67036e-06 -6.6718e-06 7.11339e-06
-1.88674e-06 -1.19969e-06 1.03342e-06
-0.00110927 0.000612942 2.00424e-05
3.71248e-07 -2.61502e-07 1.93106e-07
2.42995e-06 -6.99194e-06 7.11201e-06
-7.45279e-06 -1.7097e-05 1.85416e-05
-0.000433333 -0.00141579 -0.000752807
2.4271e-06 -2.12653e-06 1.87491e-06
3.01916e-06 -7.40742e-06 7.55906e-06
4.74161e-06 -2.84882e-06 3.33797e-06
-7.70282e-07 -2.91573e-08 1.5826e-07
-3.99504e-07 -1.76103e-06 1.91724e-06
3.43088e-06 -4.20667e-07 5.04716e-07
7.95085e-06 -5.85522e-07 9.39659e-07
9.10854e-06 -2.62668e-06 3.66136e-06
1.24582e-06 -2.55343e-05 3.06045e-05
-1.19197e-05 -1.78745e-05 2.17648e-05
2.07633e-06 -1.2017e-05 1.37632e-05
7.49042e-06 -8.40133e-06 9.45037e-06
1.31392e-05 -1.54084e-05 1.67009e-05
8.90198e-06 -6.4586e-06 7.21547e-06
3.45303e-05 -2.09771e-05 2.26373e-05
-3.12922e-06 -1.98919e-06 1.97876e-06
-7.51229e-06 -3.86596e-06 5.24241e-06
-5.28681e-06 -3.13512e-06 2.52802e-06
1.62076e-06 -7.69423e-06 9.15229e-06
1.32277e-06 -1.52356e-06 1.17248e-06
1.68207e-06 -5.06163e-07 4.56799e-07
6.25475e-06 -3.56702e-06 3.19714e-06
0.000736181 0.000546382 -0.000347202
1.73761e-06 -4.89184e-07 3.56092e-07
8.89782e-05 0.000912612 0.000183301
-1.43834e-06 -1.34379e-06 1.47964e-06
-9.23553e-07 -1.80311e-07 1.08394e-07
-2.45509e-06 -3.48849e-06 4.45188e-06
-4.45452e-06 -6.55355e-06 8.45536e-06
4.40474e-06 -7.06378e-07 8.82838e-07
1.17142e-06 -9.53874e-07 9.88148e-07
5.41748e-07 -4.09203e-07 4.06954e-07
-3.55276e-06 -1.01281e-05 1.22485e-05
0.000541157 0.000583384 0.000588595
1.56826e-06 -1.85509e-07 1.06686e-07
-0.000167412 -1.22001e-05 -0.000310709
3.89652e-07 -4.67535e-06 5.56925e-06
-3.21154e-06 -7.30656e-07 1.01042e-06
-1.95748e-06 -7.83792e-06 8.84198e-06
7.72959e-06 -2.39794e-05 2.50808e-05
1.57312e-06 -1.1977e-05 1.31574e-05
-2.80945e-06 -3.13024e-06 2.30843e-06
1.74854e-06 -2.26174e-08 1.66644e-07
-2.4501e-06 -6.01992e-07 5.22714e-07
-8.25044e-06 -6.59026e-06 8.44568e-06
4.69321e-06 -7.14584e-06 8.07201e-06
-4.24608e-06 -6.88069e-06 7.7771e-06
1.56892e-06 -5.24046e-07 5.55968e-07
-2.85988e-06 -4.9756e-07 6.89026e-07
-1.1739e-06 -6.33104e-07 4.77451e-07
-2.81184e-06 -3.20296e-06 4.18914e-06
7.13021e-07 -1.32286e-06 1.15475e-06
0.00101859 0.000497352 0.000375698
1.12332e-06 -3.11686e-06 3.07272e-06
5.53186e-07 -6.61903e-08 5.60569e-08
-2.16215e-06 -4.01131e-06 5.04692e-06
2.23817e-06 -3.94701e-06 5.18225e-06
1.89669e-06 -2.07494e-06 2.70146e-06
-1.31514e-06 -2.10601e-06 2.45833e-06
4.97292e-06 -9.44022e-06 1.09318e-05
3.51198e-06 -1.01011e-06 1.12543e-06
-6.29704e-05 -0.000964337 0.000278277
1.20471e-06 4.73095e-09 1.31707e-08
0.000106777 -0.000533505 0.000341807
-0.000221751 -0.000229667 8.7041e-05
-0.000189563 0.000208684 -0.000180153
2.46756e-06 -4.3393e-07 4.75001e-07
-9.32663e-07 -1.59419e-07 1.34281e-07
1.16693e-06 -3.78813e-06 4.20552e-06
-2.12016e-06 -2.16593e-06 3.38588e-06
-5.61751e-06 -2.99324e-06 3.79016e-06
-2.98541e-05 -2.36892e-05 2.82002e-05
-1.83139e-06 -4.01824e-06 4.2219e-06
-1.68499e-06 -6.79024e-06 6.55742e-06
5.51051e-07 -4.36198e-06 4.87574e-06
-5.13386e-05 4.99838e-05 -7.55246e-05
5.6261e-06 -8.18569e-06 8.80638e-06
3.3381e-06 -3.86392e-06 3.85886e-06
6.36883e-06 -6.39315e-06 6.95757e-06
1.00104e-06 -3.30139e-07 2.99045e-07
8.25812e-06 -8.57811e-06 9.86183e-06
5.8709e-07 -3.2695e-07 2.72057e-07
-2.58118e-07 -3.60492e-06 3.98359e-06
1.49789e-05 -8.65366e-06 8.80063e-06
-7.40831e-06 -7.1824e-06 8.42478e-06
-9.54092e-06 -7.75882e-06 8.23544e-06
-7.3388e-07 -3.50468e-08 6.35849e-08
9.2792e-06 -4.08443e-06 4.52501e-06
1.68719e-05 -6.33155e-06 6.75813e-06
1.24292e-05 -6.13801e-06 7.08299e-06
-0.000453714 -0.000349317 -0.000570076
2.05612e-07 -4.5315e-06 5.01813e-06
-9.28732e-07 -4.6628e-07 5.1363e-07
4.65943e-06 -4.13535e-06 4.60333e-06
7.92604e-06 -1.22955e-05 1.34695e-05
1.19509e-05 -3.83871e-06 4.15707e-06
-4.67734e-06 -2.79637e-06 3.15621e-06
-5.28961e-06 -9.36563e-06 1.09047e-05
-3.83524e-06 -9.93273e-06 1.14345e-05
-1.20113e-06 -1.19118e-07 1.51361e-07
0.000360862 0.000340869 8.82076e-06
-6.24542e-07 -7.36088e-08 2.24376e-08
1.15539e-06 -3.96871e-06 4.61809e-06
1.11041e-05 -3.27769e-06 3.67481e-06
-0.000145463 -0.000657201 -0.00026526
-1.97534e-07 -8.65451e-08 7.09864e-08
9.83187e-06 -3.65263e-06 3.09834e-06
1.5513e-06 -2.83292e-06 3.40234e-06
1.18365e-06 -5.27517e-06 6.34823e-06
-7.05952e-06 -2.62155e-06 3.3815e-06
-5.55361e-06 -3.78341e-06 4.91599e-06
0.000136532 -0.00108092 -0.000162376
3.91127e-07 -2.32634e-09 4.63069e-08
6.03651e-05 -5.41434e-05 -0.000343952
-6.79219e-07 -3.21875e-06 3.53828e-06
3.68263e-06 -4.06293e-06 4.55978e-06
1.22063e-05 -1.05541e-05 1.14192e-05
-6.63258e-06 -7.7668e-06 9.65073e-06
-5.54545e-06 -2.78582e-06 3.5259e-06
-3.85577e-06 -2.70668e-06 3.2628e-06
-4.67964e-06 -5.24617e-06 6.31047e-06
-0.000909116 0.000251694 0.000189283
-1.03586e-05 -4.05504e-06 4.96504e-06
-1.25537e-06 -1.10196e-06 9.37486e-07
1.60733e-05 -1.72976e-05 1.84901e-05
3.37644e-06 -6.79039e-06 7.45464e-06
1.22317e-06 -6.47871e-07 6.40911e-07
4.10677e-06 -6.61288e-07 6.0527e-07
-1.37495e-07 -6.33782e-09 2.72603e-08
-0.000107861 -0.000546853 -0.000150539
-1.53336e-07 -3.02536e-06 3.55177e-06
6.125e-06 -2.91319e-06 3.03769e-06
-9.24957e-07 -2.98632e-06 3.66558e-06
0.000520972 -0.000648534 0.000253227
-0.00149895 0.000112388 0.000398706
-2.34304e-06 -2.05661e-06 2.71141e-06
-3.7186e-06 -6.95902e-06 8.28693e-06
-1.75069e-06 -6.87116e-07 6.09189e-07
6.83747e-07 -3.50771e-07 4.67856e-07
1.89522e-06 -2.81843e-06 2.93487e-06
-1.24878e-06 -1.11628e-06 1.54591e-06
-6.72974e-07 -4.80207e-06 5.81752e-06
-1.65681e-06 -3.3224e-06 4.08255e-06
4.28701e-06 -3.63574e-06 3.93888e-06
3.27854e-06 -5.55361e-07 7.9784e-07
7.85052e-06 -3.22786e-06 3.58746e-06
5.17691e-06 -2.19725e-06 2.41658e-06
4.45646e-06 -1.5375e-06 1.77461e-06
7.95617e-06 -6.37758e-06 6.81861e-06
1.04636e-07 -2.48408e-06 2.69155e-06
-2.24571e-06 -6.44498e-07 1.007e-06
-2.89025e-06 -1.28022e-06 2.08071e-06
-1.50072e-06 -5.50573e-07 8.41593e-07
9.03531e-07 -2.60947e-06 3.27376e-06
-1.97461e-06 -4.3211e-07 3.45074e-07
3.43837e-06 -5.99689e-06 6.64698e-06
0.00021351 -0.000790686 -0.000689129
-4.7687e-06 -7.04894e-06 8.64561e-06
6.15626e-06 -5.30843e-06 5.70338e-06
3.01563e-06 -6.98033e-06 7.52389e-06
0.000289802 -0.000725354 0.000341852
-3.42866e-07 -3.18222e-07 3.82663e-07
-4.97513e-06 -2.55649e-06 3.13355e-06
-8.18647e-06 -5.41754e-06 6.76893e-06
-4.28852e-06 -3.80058e-06 4.73066e-06
3.87885e-06 -2.48213e-06 2.52022e-06
5.37241e-06 -4.17452e-06 4.05914e-06
4.28034e-06 -1.92411e-06 1.83542e-06
2.61799e-06 -2.88367e-06 3.25731e-06
-1.1727e-06 -3.80773e-07 8.37651e-07
3.26564e-06 -1.03341e-06 1.33191e-06
-8.6415e-07 -3.96579e-07 2.78759e-07
-1.43792e-06 -4.88259e-07 3.83552e-07
3.30733e-06 -4.47859e-06 4.847e-06
8.33308e-06 -1.975e-06 2.26288e-06
9.03353e-07 -4.54808e-06 5.14573e-06
4.81382e-06 -2.29498e-06 2.57719e-06
7.31291e-06 -4.14437e-06 4.57893e-06
7.59949e-05 -0.000214272 0.000300533
1.1268e-06 -5.63121e-08 9.20058e-08
-8.89407e-05 0.000452933 -3.64997e-06
4.33499e-06 -9.23885e-07 1.05884e-06
6.36379e-06 -1.52436e-06 1.53357e-06
5.6604e-06 -3.62135e-06 4.16955e-06
3.9413e-06 -2.5894e-06 2.81575e-06
-2.21344e-06 -2.22437e-06 2.09437e-06
-2.95588e-06 -1.78614e-06 1.75052e-06
8.5186e-07 -3.36078e-08 1.42424e-08
2.80463e-06 -3.36676e-06 3.57825e-06
-1.63394e-06 -4.6236e-06 5.50639e-06
5.3406e-06 -3.59674e-06 3.89663e-06
-4.23821e-06 -1.93836e-06 2.60141e-06
-2.59766e-07 -3.25176e-07 3.34002e-07
-4.01469e-06 -4.3316e-06 5.29233e-06
7.36809e-07 -7.76674e-07 8.10145e-07
3.35241e-06 -1.76963e-06 2.05874e-06
8.27155e-06 -5.19537e-06 5.75868e-06
1.86003e-06 -1.62892e-06 1.85626e-06
-7.08007e-07 -5.83026e-06 6.77894e-06
4.37608e-06 -1.49524e-06 1.44673e-06
-3.65034e-06 -3.48869e-06 3.83701e-06
2.54771e-06 -4.89156e-07 3.97039e-07
-0.000667593 -9.25727e-05 0.00011517
-1.35636e-06 -1.05825e-06 1.52858e-06
-3.37312e-06 -1.49437e-06 1.59071e-06
2.93511e-06 -1.99343e-06 1.86335e-06
3.00932e-06 -1.10757e-06 9.61897e-07
-1.87514e-06 -1.02681e-06 8.06383e-07
1.01683e-07 -1.83356e-06 1.94246e-06
0.000605962 -0.000757637 -1.08994e-05
-1.2881e-05 -1.83129e-05 0.000226526
3.7849e-06 -1.14748e-06 1.55507e-06
6.21593e-06 -3.7731e-06 3.81046e-06
-5.74085e-07 -1.06334e-06 1.05438e-06
1.19082e-06 -4.54701e-06 5.18932e-06
3.00915e-06 -1.88364e-06 1.79183e-06
-3.47127e-06 -2.00274e-06 2.86252e-06
4.72741e-06 -5.23024e-06 5.67961e-06
0.000227196 1.89914e-05 0.000175031
6.94794e-06 -3.77519e-06 4.14159e-06
1.53887e-07 -2.52005e-07 2.39099e-07
0.000554154 -0.000468272 -6.29085e-06
-6.93601e-08 -6.02719e-07 7.96332e-07
0.000834691 -0.000311926 -0.000184198
5.97532e-06 -4.89967e-06 5.40119e-06
3.84326e-06 -2.90409e-06 3.18567e-06
0.00015463 -0.000301873 -4.32957e-05
2.35854e-06 -1.43865e-06 1.58193e-06
-0.000292492 -0.000314409 -0.000283589
-4.39996e-07 -1.40087e-06 1.61017e-06
8.82006e-07 -1.48413e-06 1.78585e-06
4.66705e-06 -1.0109e-06 1.33266e-06
-9.52967e-07 -5.00649e-06 5.79025e-06
2.83582e-07 -5.28911e-07 5.36741e-07
-0.00071551 -0.000812691 -8.46602e-05
-7.61131e-07 -2.09833e-06 1.84407e-06
-1.60425e-06 -4.4788e-07 6.12299e-07
-1.34524e-06 -1.39012e-06 1.70278e-06
-0.000583379 -0.000542471 -4.2533e-05
6.38673e-06 -3.19527e-06 3.56721e-06
5.97367e-06 -4.15929e-06 4.58027e-06
-9.16855e-07 -1.43244e-06 1.70783e-06
1.61589e-06 -1.515e-06 1.664e-06
2.00059e-07 -1.06808e-07 1.76315e-08
0.000284706 0.000646924 -0.000197412
-1.55889e-05 7.02432e-05 -3.28991e-06
0.000169615 -0.000220067 -6.89821e-05
6.46555e-06 -3.19807e-06 3.54555e-06
1.60649e-06 -1.29193e-06 1.4832e-06
3.44081e-06 -1.00822e-06 8.04834e-07
-8.83915e-07 -1.6431e-06 2.03516e-06
-5.92217e-05 -0.000116009 2.21719e-05
0.000177435 0.000649032 0.00015256
-5.08217e-07 -7.41867e-08 4.81556e-08
-7.50632e-07 -8.42883e-08 7.33185e-08
7.71301e-07 -3.24336e-06 4.03614e-06
-7.23317e-08 -1.06341e-07 7.04714e-08
-3.85417e-05 0.000385868 -0.000108345