# vtk DataFile Version 4.2
vtk output
ASCII
DATASET UNSTRUCTURED_GRID

POINTS 343 double
0.00112263 0.0041949 9.12799e-08
0.00217133 0.00498245 0.00217539
0 0.00419538 0.00112517
0.00193009 0.00195439 0.00194218
0.00516912 0.00240624 0.00503245
0.00517197 0.00382949 0.00639774
0.00762284 0.0047742 0.00499937
0.006225 0.0048496 0.00369211
0.00683579 0.00328757 0.00691431
0.00499126 0.00499204 0.005
0.0041795 0.00111765 0.00999925
0.00528023 0.00207958 0.00790427
0.00418933 -7.93892e-06 0.0083173
0.0020122 0.00200242 0.00803328
0.0042855 0.00253245 0.00999931
0.00695694 0.00644579 0.00694724
0.00641426 0.00618157 0.00518335
0.0022605 0.00218454 0.00514615
0 0.00143586 0.00417514
0.00159462 0.00346612 0.00403704
0.00683723 0.00319289 0.00316189
0.00774496 0.00221166 0.00506439
0 0.00270918 0.00154168
0.0041583 0.00142802 3.90322e-07
0.00500775 0.00218719 0.00219829
0.00396276 0.00352637 0.00160333
0.00134524 -6.2365e-07 0.00406004
0.004183 -8.28257e-06 0.00168851
0.00262685 0.00695153 2.23837e-07
0.00193867 0.00805269 0.00194494
0.00408834 0.00624778 0.00164532
0.00800366 0.00798456 0.00799761
0.00796466 0.0048142 0.00802264
0.0083888 0.00607804 0.00594834
0.0100006 0.00882331 0.00419243
0.00757798 0.00763438 0.00496403
0.00856884 0.00997831 0.0041669
0.00797816 0.00796967 0.00201641
0.00353583 0.00303628 0.00695961
0.00443708 0.0036615 0.00832415
0.00389193 0.00160014 0.00596913
0.00500602 0.00766773 0.00767683
0.00198982 0.00800782 0.00798965
0.00282811 0.00999712 0.00712719
0.0039173 0.00839916 0.00595791
0 0.00695361 0.00262895
0.00164667 0.00623921 0.00408791
0 0.0040177 0.00850214
0.00231511 0.00498563 0.00766153
0.00143327 0.00417444 0.00999995
0.00717517 0.00711691 0.00999807
0.0061183 0.00596991 0.00841753
0.00205218 0.00794137 0.00474187
0.00304403 0.00694275 0.00646776
0.00158704 0.00607832 0.00592603
0.00998923 0.00578148 0.00831503
0 0.00718191 0.00711644
0.00158484 0.0057734 6.50276e-08
0 0.00577432 0.00158701
0.00999458 0.00715521 0.00711449
0.00286719 0.00334913 0.00999975
0.00996962 0.00140665 0.00417457
0.00803616 0.00194129 0.00197941
0.00838937 0.00350042 0.00399862
0.00372551 0.00164765 0.00412845
0.00150966 0.00999967 0.00581502
0.00280907 -3.81484e-06 0.00712777
0.00610948 0.0041706 0.00837602
0.00999401 0.00724725 0.00419475
0.00852761 -2.39585e-05 0.0041678
0.00334194 0.00286943 2.65529e-07
0.00269981 0.00153865 0.00999978
0.00281805 -4.20443e-06 0.00283211
0.00479791 0.00519361 0.00755433
0.00315823 0.00314609 0.00316745
0 0.00849157 0.00581511
0.00486487 0.00366899 0.00378638
0.00153714 0.00270864 5.02068e-08
0.00580024 0.00831515 0.00999846
0.00598593 0.00998844 0.00850504
0.00421486 0.00999364 0.00831738
0.00401823 0.00849791 0.009999
0.00999963 0.00846463 0.00581347
0.00314789 0.00683338 0.00315096
0 0.00748929 0.00137438
0.00137368 0.00748898 2.33443e-08
0 0.00287343 0.00335182
0 0.00580816 0.00831736
0 0.00429792 0.00253898
0.0025339 0.00429579 2.31508e-07
0.00143392 0.00581915 0.00999996
0.00517582 0.00646803 0.00640018
0.00360352 0.00650916 0.00823387
0.00693164 0.00261184 0.00999837
0.0079987 0.00193819 0.0080343
0.00694127 -1.77923e-05 0.00308218
0.00600042 0.00165152 0.00361298
0.00997529 0.00284515 0.00335147
0 0.00140616 0.00256446
0.00637423 0.00821577 0.00642044
0.00579656 0.00142238 7.21481e-07
0.00602231 0.00354012 0.00160354
0.00315787 0.00999624 0.00582518
0.00856399 0.0099785 0.00583199
0.00255403 0.00140281 2.52702e-07
0.00594953 -1.41311e-05 0.00149491
0.00628151 0.00827581 0.00361715
0.00852288 -2.37711e-05 0.00583258
0.00618608 0.00165959 0.00636488
0.00140223 0.00256405 0.01
0.00711251 0.00716663 2.32367e-07
0.0051662 0.00768167 0.00216902
0.00593717 0.00608307 0.00160209
0 0.00686719 0.00578184
0.00996897 0.00137673 0.00256443
0.00177227 0.00360984 0.00640788
0.00999869 0.00845963 0.00262308
0.00840411 0.00616897 0.00413228
0.00598466 0.00998774 0.00149385
0.00694093 -1.75079e-05 0.0069258
0.00997016 0.00140647 0.00581848
0.00837921 0.00355237 0.00605999
0.00150173 -8.01854e-07 0.00581521
0 0.0013659 0.00748679
0.00136357 -6.7947e-07 0.00752891
0.00999281 0.00684042 0.00578029
0.00581668 0.00848042 2.18299e-07
0 0.0075208 0.00859127
0.00136523 0.00748641 0.00999989
0.00423183 0.00819991 0.00362827
0.00859735 0.00997836 0.00751043
0.0100008 0.00860344 0.00752416
0.00575434 0.00157478 0.00999871
0.00724522 0.00417237 0.00999822
0 0.0057735 0.00666667
0.00137056 0.0099996 0.00752893
0 0.00863025 0.00752641
0.00855375 -2.44072e-05 0.00250768
0.0099922 0.00692652 0.00262842
0.00845136 0.00632144 0.00216278
0.00850031 0.00580349 0.00999774
0.00746474 0.00135556 0.00999809
0.00855613 -2.40126e-05 0.00751057
0.00997038 0.00133693 0.00748489
0 0.00143551 0.00581971
0.00595122 -1.36678e-05 0.00850492
0.00419272 -8.34187e-06 0.00340014
0.00792059 0.00468886 0.00203455
0.00998097 0.0042703 0.0025387
0.00423255 0.0099934 0.00666618
0.00283739 0.00999716 0.00283196
0.00130693 -6.79757e-07 0.00241834
0 0.00727418 0.00419576
0.00998846 0.00574674 0.00666486
0.00697918 0.00998428 0.00308127
0.00750929 0.00862021 0.00999795
0 0.00574334 0.00336387
0 0.0043297 0.00416652
0.00686214 0.00577052 0.00999835
0.00997704 0.00299431 0.00691355
0.0042054 -8.13869e-06 0.00666653
0.00248094 0.00999754 0.00861138
0.00745932 0.00134645 7.05776e-07
0.00577067 0.00665695 0.00999852
0.00999654 0.00749421 0.00858873
0.00860614 0.00753289 0.00999763
0.00689519 0.00300632 7.3584e-07
0.00335944 0.00574027 3.7819e-07
0.00752754 0.00861286 6.945e-08
0.00752108 0.00998191 0.00138716
0.00577794 0.00685688 2.94355e-07
0.00696886 0.00635647 0.00303327
0.0074819 -2.03037e-05 0.00138827
0.00288038 0.00499701 0.00999966
0.00432548 0.00582833 0.00999908
0.00432119 0.00416117 0.00999916
0.00752298 0.00998251 0.00861431
0.00246451 -3.23173e-06 0.00861157
0.00998721 0.00571626 0.00336328
0 0.00302218 0.00691532
0.00998168 0.00399051 0.00849983
0.0084832 0.00399589 5.16901e-07
0.00997409 0.00268052 0.00154184
0 0.00244495 0.00857025
0.00244623 0.00856805 0.00999952
0.00748397 -1.98031e-05 0.00861416
0.00846531 0.00260213 0.00999776
0.00883523 0.00417153 0.00999763
0.00567662 0.00998911 0.00583272
0.0051856 0.00757531 0.00503209
0.00564862 0.00998905 0.00421488
0.00697874 0.00998464 0.00692544
0.00302081 0.00691322 0.00999942
0.0041576 0.00432432 5.44475e-07
0.00282105 -4.35265e-06 0.00440482
0.00313718 -4.86264e-06 0.0058256
0.00998016 0.00416747 0.00112528
0.00363873 0.00833293 0.00158842
0.00998161 0.00430224 0.00416578
0.00665764 0.00575997 5.24431e-07
0.00859516 0.00997795 0.00250655
0 0.00848692 0.00262374
0.00135236 0.00999964 0.00405988
0 0.00885053 0.00419359
0.00419598 0.00884394 2.75875e-07
0.00420983 0.00999318 0.00168779
0.0049902 0.00478399 0.00237907
0.00720476 0.00450547 6.18485e-07
0.00561556 -1.29734e-05 0.0042157
0.00564363 -1.29091e-05 0.00583317
0.00131389 0.00999965 0.00241806
0.00854474 0.002422 6.2314e-07
0.00998339 0.00449465 0.00721764
0.00712167 0.00998397 0.00499946
0.00572956 0.00335351 0.00999875
0.00244541 -3.39412e-06 0.00135681
0.00997514 0.0024167 0.00856801
0.00239185 0.0047897 0.00499996
0.00582028 0.00431919 6.91379e-07
0.00830618 0.00578777 2.88312e-07
0.00548569 0.00998991 0.00721971
0.00998211 0.00430284 0.00583195
0.00540862 0.00998969 0.00277541
0.00708338 -1.81244e-05 0.00500019
0.00283982 0.00999717 0.00440437
0 0.00452174 0.00721958
0.00452035 0.00721418 0.00999894
0.00545331 -1.20688e-05 0.00721967
0.00359819 0.00507027 0.0035966
0.00425732 0.00999333 0.00500795
0.00422943 -8.32351e-06 0.00500861
0.00366633 0.00521325 0.00617451
0 0.005744 0.00499998
0 0.00433013 0.00583333
0.00499325 0.00573672 5.70828e-07
0.00498081 0.00633192 0.00355382
0.00537613 -1.22544e-05 0.00277636
0.00998776 0.00571711 0.0049988
0.00368817 0.00640419 0.00484388
0.00573571 0.00499064 0.00999868
0.00998686 0.00574702 0.00158688
0 0.00666667 0
0.00858687 0.00749945 -2.27493e-09
0.00331611 -6.44976e-06 9.72222e-07
0 0.01 0.00666667
0.00500704 0.00999107 0.00999898
0 0.00288419 0.00499914
0.00999413 0.00746207 0.00137415
0.00999033 0.00663933 -1.02767e-07
0 0.005 0.01
0.00498341 0.00287525 5.65958e-07
0 0.005 0
0.00996334 -3.0207e-05 0.00333321
0.0100063 0.0099724 0.00666459
0.00419398 0.00726869 3.50938e-07
0.00997578 0.00285614 0.00499818
0.00497558 -1.15484e-05 1.10381e-06
0 0 0.00666667
0.00379036 0.00361243 0.00522632
0.00497764 -1.10084e-05 0.00999858
0.00996442 -2.99234e-05 0.0066651
0 0 0.005
0.00878594 0.00997696 0.00121974
0.00999957 0.00875229 0.0012197
0.00996385 -3.00128e-05 0.00499918
0.00998331 0.00497221 1.35801e-07
0.00121557 0.00121921 -2.84294e-09
0 0.00122008 0.00122008
0 0.00333333 0.01
0 0.00666667 0.01
0.0087806 0.00875729 -2.00231e-07
0.0100053 0.00997204 0.00333225
0.00422041 0.00999328 0.0033995
0.00999338 0.00664018 0.00999729
0 0.00333333 0
0 0.00122008 0.00877992
0.0012148 -8.66663e-07 0.00877969
0.00121603 0.00121949 0.0100001
0.00878811 0.00997753 0.00877784
0.0012201 0.00877943 0.00999988
0 0.00877992 0.00877992
0.010002 0.00875303 0.00877736
0.00667323 0.00998497 -2.11629e-07
0.00996774 0.00119032 0.00122047
0.00122115 0.00999943 0.00878012
0.00878361 0.00875807 0.00999762
0.00998632 0.00497315 0.00999732
0 0 0.00333333
0.00663605 -1.72142e-05 1.19832e-06
0.00874434 -2.54444e-05 0.00122095
0.0012059 -8.95529e-07 0.00121212
0 0.00877992 0.00122008
0.00122019 0.00877939 1.085e-07
0.00121256 0.00999949 0.00121142
0.00997012 0.00119093 0.00877748
0.00875206 0.0011959 0.00999757
0.00663879 -1.66854e-05 0.00999787
0.00874901 0.00119525 7.30029e-07
0.00874673 -2.49095e-05 0.00877761
0.00997637 0.0033049 3.28544e-07
0.00333851 0.00999527 0.00999969
0.00246242 0.00999773 0.00135638
0.00667546 0.00998567 0.00999852
0.00997931 0.00330585 0.00999731
0 0.01 0.005
0.00262459 0.00848451 2.36604e-07
0.0100058 0.00997223 0.00499849
0 0.01 0.00333333
0 0.00166667 0
0.00996284 -3.04727e-05 0.00166713
0 0.00166667 0.01
0 0.00833333 0
0.00999744 0.00830571 -3.4186e-07
0.00996496 -2.99963e-05 0.0083309
0.0100049 0.00997182 0.00166605
0.0100069 0.00997244 0.0083309
0.00166918 0.00999843 0.00999993
0 0.01 0.00833333
0.00833946 0.00997856 -3.12483e-07
0.00829848 -2.39395e-05 9.8964e-07
0.0083015 -2.33815e-05 0.00999744
0.00834211 0.00997914 0.00999786
0 0 0.00833333
0.0100005 0.00830657 0.00999724
0.00165775 -2.2354e-06 2.96676e-07
0 0 0.00166667
0.00333839 0.00999546 1.52409e-07
0.00997236 0.00163769 0.00999725
0.00996934 0.00163702 4.68359e-07
0.00165874 -1.83933e-06 0.01
0.00166902 0.00999875 9.62218e-08
0 0.01 0.00166667
0.0100075 0.00997245 0.00999732
0 0 0.01
0.0100045 0.00997164 -6.27571e-07
0.00996545 -3.01069e-05 0.00999695
0 0.01 0.01
0.00996237 -3.0698e-05 7.37354e-07
0 0.01 0
0 0 0
0.00500608 0.00999056 1.80545e-08
0.00331763 -5.80392e-06 0.00999915
0 0.00833333 0.01

CELLS 343 686
1 0
1 1
1 2
1 3
1 4
1 5
1 6
1 7
1 8
1 9
1 10
1 11
1 12
1 13
1 14
1 15
1 16
1 17
1 18
1 19
1 20
1 21
1 22
1 23
1 24
1 25
1 26
1 27
1 28
1 29
1 30
1 31
1 32
1 33
1 34
1 35
1 36
1 37
1 38
1 39
1 40
1 41
1 42
1 43
1 44
1 45
1 46
1 47
1 48
1 49
1 50
1 51
1 52
1 53
1 54
1 55
1 56
1 57
1 58
1 59
1 60
1 61
1 62
1 63
1 64
1 65
1 66
1 67
1 68
1 69
1 70
1 71
1 72
1 73
1 74
1 75
1 76
1 77
1 78
1 79
1 80
1 81
1 82
1 83
1 84
1 85
1 86
1 87
1 88
1 89
1 90
1 91
1 92
1 93
1 94
1 95
1 96
1 97
1 98
1 99
1 100
1 101
1 102
1 103
1 104
1 105
1 106
1 107
1 108
1 109
1 110
1 111
1 112
1 113
1 114
1 115
1 116
1 117
1 118
1 119
1 120
1 121
1 122
1 123
1 124
1 125
1 126
1 127
1 128
1 129
1 130
1 131
1 132
1 133
1 134
1 135
1 136
1 137
1 138
1 139
1 140
1 141
1 142
1 143
1 144
1 145
1 146
1 147
1 148
1 149
1 150
1 151
1 152
1 153
1 154
1 155
1 156
1 157
1 158
1 159
1 160
1 161
1 162
1 163
1 164
1 165
1 166
1 167
1 168
1 169
1 170
1 171
1 172
1 173
1 174
1 175
1 176
1 177
1 178
1 179
1 180
1 181
1 182
1 183
1 184
1 185
1 186
1 187
1 188
1 189
1 190
1 191
1 192
1 193
1 194
1 195
1 196
1 197
1 198
1 199
1 200
1 201
1 202
1 203
1 204
1 205
1 206
1 207
1 208
1 209
1 210
1 211
1 212
1 213
1 214
1 215
1 216
1 217
1 218
1 219
1 220
1 221
1 222
1 223
1 224
1 225
1 226
1 227
1 228
1 229
1 230
1 231
1 232
1 233
1 234
1 235
1 236
1 237
1 238
1 239
1 240
1 241
1 242
1 243
1 244
1 245
1 246
1 247
1 248
1 249
1 250
1 251
1 252
1 253
1 254
1 255
1 256
1 257
1 258
1 259
1 260
1 261
1 262
1 263
1 264
1 265
1 266
1 267
1 268
1 269
1 270
1 271
1 272
1 273
1 274
1 275
1 276
1 277
1 278
1 279
1 280
1 281
1 282
1 283
1 284
1 285
1 286
1 287
1 288
1 289
1 290
1 291
1 292
1 293
1 294
1 295
1 296
1 297
1 298
1 299
1 300
1 301
1 302
1 303
1 304
1 305
1 306
1 307
1 308
1 309
1 310
1 311
1 312
1 313
1 314
1 315
1 316
1 317
1 318
1 319
1 320
1 321
1 322
1 323
1 324
1 325
1 326
1 327
1 328
1 329
1 330
1 331
1 332
1 333
1 334
1 335
1 336
1 337
1 338
1 339
1 340
1 341
1 342

CELL_TYPES 343
1
1
1
1
1
1
1
1
1
1
1
1
1
1
1
1
1
1
1
1
1
1
1
1
1
1
1
1
1
1
1
1
1
1
1
1
1
1
1
1
1
1
1
1
1
1
1
1
1
1
1
1
1
1
1
1
1
1
1
1
1
1
1
1
1
1
1
1
1
1
1
1
1
1
1
1
1
1
1
1
1
1
1
1
1
1
1
1
1
1
1
1
1
1
1
1
1
1
1
1
1
1
1
1
1
1
1
1
1
1
1
1
1
1
1
1
1
1
1
1
1
1
1
1
1
1
1
1
1
1
1
1
1
1
1
1
1
1
1
1
1
1
1
1
1
1
1
1
1
1
1
1
1
1
1
1
1
1
1
1
1
1
1
1
1
1
1
1
1
1
1
1
1
1
1
1
1
1
1
1
1
1
1
1
1
1
1
1
1
1
1
1
1
1
1
1
1
1
1
1
1
1
1
1
1
1
1
1
1
1
1
1
1
1
1
1
1
1
1
1
1
1
1
1
1
1
1
1
1
1
1
1
1
1
1
1
1
1
1
1
1
1
1
1
1
1
1
1
1
1
1
1
1
1
1
1
1
1
1
1
1
1
1
1
1
1
1
1
1
1
1
1
1
1
1
1
1
1
1
1
1
1
1
1
1
1
1
1
1
1
1
1
1
1
1
1
1
1
1
1
1
1
1
1
1
1
1
1
1
1
1
1
1
1
1
1
1
1
1
1
1
1
1
1
1
1
1
1
1
1
1
1
1
1
1
1
1
1
1
1
1
1
1

POINT_DATA 343
FIELD FieldData 8

NodeID_(#) 1 343 int
0
1
2
3
4
5
6
7
8
9
10
11
12
13
14
15
16
17
18
19
20
21
22
23
24
25
26
27
28
29
30
31
32
33
34
35
36
37
38
39
40
41
42
43
44
45
46
47
48
49
50
51
52
53
54
55
56
57
58
59
60
61
62
63
64
65
66
67
68
69
70
71
72
73
74
75
76
77
78
79
80
81
82
83
84
85
86
87
88
89
90
91
92
93
94
95
96
97
98
99
100
101
102
103
104
105
106
107
108
109
110
111
112
113
114
115
116
117
118
119
120
121
122
123
124
125
126
127
128
129
130
131
132
133
134
135
136
137
138
139
140
141
142
143
144
145
146
147
148
149
150
151
152
153
154
155
156
157
158
159
160
161
162
163
164
165
166
167
168
169
170
171
172
173
174
175
176
177
178
179
180
181
182
183
184
185
186
187
188
189
190
191
192
193
194
195
196
197
198
199
200
201
202
203
204
205
206
207
208
209
210
211
212
213
214
215
216
217
218
219
220
221
222
223
224
225
226
227
228
229
230
231
232
233
234
235
236
237
238
239
240
241
242
243
244
245
246
247
248
249
250
251
252
253
254
255
256
257
258
259
260
261
262
263
264
265
266
267
268
269
270
271
272
273
274
275
276
277
278
279
280
281
282
283
284
285
286
287
288
289
290
291
292
293
294
295
296
297
298
299
300
301
302
303
304
305
306
307
308
309
310
311
312
313
314
315
316
317
318
319
320
321
322
323
324
325
326
327
328
329
330
331
332
333
334
335
336
337
338
339
340
341
342

Component_(#) 1 343 int
0
0
0
0
0
0
0
0
0
0
0
0
0
0
0
0
0
0
0
0
0
0
0
0
0
0
0
0
0
0
0
0
0
0
0
0
0
0
0
0
0
0
0
0
0
0
0
0
0
0
0
0
0
0
0
0
0
0
0
0
0
0
0
0
0
0
0
0
0
0
0
0
0
0
0
0
0
0
0
0
0
0
0
0
0
0
0
0
0
0
0
0
0
0
0
0
0
0
0
0
0
0
0
0
0
0
0
0
0
0
0
0
0
0
0
0
0
0
0
0
0
0
0
0
0
0
0
0
0
0
0
0
0
0
0
0
0
0
0
0
0
0
0
0
0
0
0
0
0
0
0
0
0
0
0
0
0
0
0
0
0
0
0
0
0
0
0
0
0
0
0
0
0
0
0
0
0
0
0
0
0
0
0
0
0
0
0
0
0
0
0
0
0
0
0
0
0
0
0
0
0
0
0
0
0
0
0
0
0
0
0
0
0
0
0
0
0
0
0
0
0
0
0
0
0
0
0
0
0
0
0
0
0
0
0
0
0
0
0
0
0
0
0
0
0
0
0
0
0
0
0
0
0
0
0
0
0
0
0
0
0
0
0
0
0
0
0
0
0
0
0
0
0
0
0
0
0
0
0
0
0
0
0
0
0
0
0
0
0
0
0
0
0
0
0
0
0
0
0
0
0
0
0
0
0
0
0
0
0
0
0
0
0
0
0
0
0
0
0
0
0
0
0
0
0
0
0
0
0
0
0
0
0
0
0
0
0
0
0
0
0
0
0

NodalMass_(kg) 1 343 double
3.15563e-06
1.41304e-05
2.20912e-06
1.71484e-05
8.42e-06
9.09306e-06
9.93033e-06
7.52198e-06
6.81096e-06
5.58223e-06
3.10888e-06
1.07575e-05
4.87011e-06
1.64955e-05
3.0246e-06
8.05984e-06
6.703e-06
1.0877e-05
4.18978e-06
8.16106e-06
6.14143e-06
1.17902e-05
2.23114e-06
4.25176e-06
1.09915e-05
7.41467e-06
4.21871e-06
3.92484e-06
3.08766e-06
1.31268e-05
7.72627e-06
1.65404e-05
1.19037e-05
7.29666e-06
3.81683e-06
1.11001e-05
3.81317e-06
1.39137e-05
6.37414e-06
8.00975e-06
7.6712e-06
1.18847e-05
1.6399e-05
2.78633e-06
8.93599e-06
2.58087e-06
7.57362e-06
4.23241e-06
1.31286e-05
3.80168e-06
2.7746e-06
7.16776e-06
1.21307e-05
5.11765e-06
8.19728e-06
4.58094e-06
2.79503e-06
3.26126e-06
4.12443e-06
2.11915e-06
3.35177e-06
3.61669e-06
1.56838e-05
7.33679e-06
8.24695e-06
5.00369e-06
2.82625e-06
7.20276e-06
3.26815e-06
4.18751e-06
2.02785e-06
2.42152e-06
3.11835e-06
5.97459e-06
5.87101e-06
4.09374e-06
5.45463e-06
2.28825e-06
4.49759e-06
4.38192e-06
4.50892e-06
4.39234e-06
4.27273e-06
5.32031e-06
1.53201e-06
2.38869e-06
2.02885e-06
4.38798e-06
3.17972e-06
3.14298e-06
4.61567e-06
5.87645e-06
8.18088e-06
2.48341e-06
1.53815e-05
3.49683e-06
7.35227e-06
2.01314e-06
2.0408e-06
7.98183e-06
4.41293e-06
7.1389e-06
1.20123e-06
5.03343e-06
1.61257e-06
4.12601e-06
8.73748e-06
4.37849e-06
7.97173e-06
2.13557e-06
3.38137e-06
9.48623e-06
7.40262e-06
1.80226e-06
2.10222e-06
7.98889e-06
1.87983e-06
7.44814e-06
4.19782e-06
2.37156e-06
4.31705e-06
6.06441e-06
4.30905e-06
2.16843e-06
1.8986e-06
1.81294e-06
3.89762e-06
2.44299e-06
1.65628e-06
8.01374e-06
1.64513e-06
2.3931e-06
3.01363e-06
2.99431e-06
1.36541e-06
1.87293e-06
2.09622e-06
1.94762e-06
1.87618e-06
6.37913e-06
4.58628e-06
2.02767e-06
1.61999e-06
2.41284e-06
3.8865e-06
4.44973e-06
2.29839e-06
1.17349e-05
3.11811e-06
1.354e-06
3.45063e-06
1.81846e-06
2.9382e-06
1.37381e-06
2.41464e-06
2.10451e-06
2.63927e-06
2.14166e-06
1.7943e-06
3.19976e-06
1.36989e-06
2.43489e-06
2.08158e-06
1.3601e-06
2.17203e-06
1.89924e-06
3.16996e-06
2.6119e-06
2.37677e-06
1.60225e-06
1.90684e-06
5.49206e-06
1.87878e-06
3.14313e-06
2.97301e-06
1.18454e-06
1.89263e-06
2.04166e-06
2.73572e-06
2.42405e-06
3.23083e-06
3.19752e-06
3.2142e-06
1.94492e-06
1.61196e-06
1.86876e-06
3.22435e-06
2.1114e-06
2.96917e-06
6.15288e-06
2.3097e-06
2.39729e-06
2.38029e-06
2.64508e-06
1.66557e-06
1.82377e-06
2.06583e-06
5.73271e-06
2.08467e-06
2.18324e-06
2.43522e-06
3.1188e-06
3.17316e-06
2.05447e-06
1.9592e-06
3.05718e-06
6.44327e-06
2.08796e-06
2.72615e-06
2.15709e-06
1.86812e-06
2.0028e-06
2.10999e-06
2.88994e-06
2.3222e-06
2.3979e-06
1.97629e-06
6.4127e-06
2.16225e-06
3.29198e-06
2.10223e-06
2.66566e-06
1.94415e-06
2.91865e-06
2.58116e-06
2.11703e-06
2.09534e-06
1.91719e-06
7.06046e-06
2.25203e-06
2.06378e-06
6.28159e-06
2.12147e-06
2.90924e-06
2.12921e-06
6.4487e-06
1.41701e-06
2.0682e-06
6.58062e-06
2.52584e-06
2.39732e-06
7.42191e-07
2.22368e-06
7.06751e-07
7.00657e-07
8.93749e-07
2.53536e-06
2.26535e-06
1.33607e-06
7.84725e-07
2.32303e-06
6.06694e-07
6.68276e-07
6.84307e-07
2.51242e-06
2.31629e-06
7.8367e-07
6.80839e-07
6.22692e-06
6.7471e-07
6.65305e-07
7.01158e-07
1.8232e-06
1.90695e-06
6.86722e-07
7.04792e-07
1.86445e-06
2.28572e-06
6.8045e-07
7.16005e-07
1.82373e-06
6.01079e-07
2.02791e-06
7.4579e-07
5.74423e-07
1.80052e-06
1.454e-06
2.2702e-06
1.80636e-06
2.15356e-06
1.79089e-06
1.79456e-06
6.8231e-07
2.24737e-06
1.45239e-06
1.79556e-06
6.97875e-07
6.24265e-07
6.62717e-07
1.44627e-06
1.40138e-06
2.15258e-06
1.82851e-06
1.3994e-06
1.43932e-06
2.19226e-06
6.97732e-07
1.77726e-06
1.79162e-06
6.54258e-07
7.3397e-07
2.34895e-06
7.10392e-07
6.56982e-07
6.26314e-07
2.18926e-06
6.12493e-07
6.03901e-07
5.92831e-07
5.12031e-07
5.11667e-07
4.9467e-07
4.97016e-07
4.96269e-07
5.33079e-07
4.94191e-07
4.97855e-07
4.86862e-07
4.90626e-07
4.94649e-07
4.94954e-07
4.91922e-07
4.89615e-07
4.96354e-07
4.95189e-07
4.82188e-07
1.10854e-06
5.3299e-07
5.44763e-07
5.36655e-07
5.15417e-07
5.01772e-07
5.53774e-07
5.53774e-07
5.53774e-07
5.53774e-07
5.53774e-07
5.53774e-07
5.50785e-07
5.50785e-07
7.45291e-07
7.11668e-07
4.9897e-07

NodalForce_(N) 3 343 double
-2.41093e-08 1.02531e-08 -3.19609e-10
-2.76771e-07 1.49188e-07 -5.56127e-08
0.000386538 0.000409627 0.000441038
2.16312e-07 1.65923e-07 -5.99132e-08
6.57455e-07 7.62664e-07 -2.15751e-07
3.83082e-07 7.18227e-07 -2.20437e-07
-5.38387e-08 1.72843e-06 -5.14634e-07
-1.7149e-07 8.70164e-07 -2.7764e-07
5.18286e-07 1.00531e-06 -2.82764e-07
-6.33607e-08 3.90832e-07 -1.28626e-07
3.94481e-07 2.18759e-07 -4.68611e-08
1.24354e-06 1.05338e-06 -2.63279e-07
7.32557e-07 3.60001e-07 -6.99759e-08
5.69876e-07 1.38987e-07 -7.49213e-08
2.73537e-07 1.86783e-07 -5.00307e-08
-4.44725e-07 1.1097e-06 -3.28505e-07
-4.05044e-07 7.92786e-07 -2.43495e-07
2.89336e-07 1.40885e-07 -4.85404e-08
-0.00133365 0.000718066 -0.000177863
3.60446e-08 3.30584e-08 -4.20317e-09
2.4478e-07 9.26342e-07 -2.76565e-07
1.25929e-06 2.30602e-06 -6.41619e-07
-0.000546351 -0.00168295 -0.000854912
1.934e-07 3.10409e-07 -6.7539e-08
6.18668e-07 1.0097e-06 -3.43743e-07
-2.56588e-08 3.52354e-07 -1.45191e-07
1.30393e-07 1.42369e-08 -9.67673e-09
3.96539e-07 2.92657e-07 -9.26447e-08
-1.92434e-07 5.14206e-08 -1.71364e-08
-5.89524e-07 8.28493e-08 -4.88222e-08
-5.2759e-07 3.11931e-07 -1.50646e-07
-1.94271e-06 3.03539e-06 -8.53945e-07
3.18802e-07 2.22454e-06 -6.22667e-07
-4.06325e-07 1.4932e-06 -4.27708e-07
-7.78535e-07 1.06356e-06 -2.9564e-07
-1.50371e-06 1.85367e-06 -5.43073e-07
-9.7041e-07 8.15567e-07 -2.24668e-07
-2.60472e-06 2.59757e-06 -7.85673e-07
2.74724e-07 2.35055e-07 -6.9623e-08
4.2296e-07 4.48425e-07 -1.49537e-07
6.60703e-07 4.32743e-07 -1.08927e-07
-8.62786e-07 8.59287e-07 -2.61295e-07
-3.60124e-07 1.38728e-07 -1.98221e-08
-2.36562e-07 6.57562e-08 -8.04e-09
-7.72109e-07 4.09038e-07 -1.03739e-07
0.000976085 0.000786595 -0.000395403
-1.23983e-07 5.17409e-08 -1.68726e-08
-0.000223541 0.00105895 2.23222e-05
-6.09297e-09 1.45318e-07 -4.75458e-08
3.33666e-08 1.93518e-08 4.18855e-10
-1.48917e-07 4.08624e-07 -1.06714e-07
-1.29889e-07 7.56463e-07 -2.30444e-07
-3.98086e-07 8.39246e-08 -3.22036e-08
-1.58067e-07 1.00129e-07 -3.16565e-08
-6.9211e-08 4.32836e-08 -1.59103e-08
-6.94623e-08 1.27729e-06 -3.41194e-07
0.000816441 0.000610707 0.000707176
-8.32431e-08 2.21474e-08 -1.93099e-09
-0.000102123 -1.38503e-05 -0.000346473
-1.96634e-07 5.86811e-07 -1.61525e-07
1.37545e-07 7.97714e-08 -2.48497e-08
5.05804e-07 1.095e-06 -2.95956e-07
1.34656e-06 3.32488e-06 -9.64506e-07
2.86751e-07 1.58264e-06 -4.57737e-07
5.85893e-07 4.38562e-07 -1.18651e-07
-1.94069e-07 5.43068e-09 -1.83087e-09
2.90638e-07 9.4414e-08 -2.19925e-08
3.72227e-07 7.94144e-07 -2.32758e-07
-4.3024e-07 9.08548e-07 -2.57261e-07
8.44755e-07 1.01229e-06 -2.78059e-07
-9.1237e-09 7.07354e-08 -1.88297e-08
1.783e-07 6.48281e-08 -1.7295e-08
2.59229e-07 1.12482e-07 -2.35251e-08
4.95001e-08 3.67352e-07 -1.25646e-07
8.63386e-08 1.57359e-07 -5.66295e-08
0.00147684 0.000593498 0.000343051
1.11099e-07 3.90723e-07 -1.34363e-07
-3.02855e-09 7.43912e-09 -5.86988e-10
-3.72073e-07 4.5473e-07 -1.09825e-07
-7.04425e-07 4.77585e-07 -1.3956e-07
-4.96146e-07 2.56244e-07 -7.09721e-08
-2.54555e-07 2.31607e-07 -4.05281e-08
-7.18556e-07 1.18363e-06 -3.26475e-07
-2.53007e-07 1.19149e-07 -5.28152e-08
5.2135e-05 -0.00112196 0.000402512
-7.83525e-08 2.00164e-09 1.16163e-09
0.000106768 -0.000709405 0.000439652
-0.000812306 -0.000342706 6.96015e-05
-0.000297838 0.000275564 -0.000166735
-9.31019e-08 5.41961e-08 -1.61591e-08
4.40511e-09 1.61416e-08 2.25122e-10
-2.80287e-07 4.32989e-07 -1.35917e-07
-1.3575e-07 2.25996e-07 -8.45044e-08
3.36253e-07 3.87732e-07 -9.7521e-08
2.39454e-06 3.18235e-06 -8.13718e-07
5.9491e-07 6.07725e-07 -1.74224e-07
7.32543e-07 9.44127e-07 -2.81038e-07
1.28903e-07 5.91919e-07 -1.65585e-07
-6.0376e-05 0.000117786 2.72757e-06
-9.77578e-07 9.61956e-07 -2.64506e-07
3.17669e-07 5.59727e-07 -1.46387e-07
7.17224e-08 8.41998e-07 -2.79241e-07
-1.18277e-07 3.95232e-08 -1.10238e-08
-1.17892e-06 1.06972e-06 -2.93872e-07
3.85143e-08 4.81656e-08 -9.49571e-09
5.82286e-07 5.56435e-07 -1.73362e-07
-1.35366e-06 1.04002e-06 -3.22306e-07
9.63425e-07 1.05107e-06 -2.76977e-07
1.03004e-06 1.05898e-06 -2.72724e-07
4.5879e-08 4.30852e-09 -7.57492e-10
-5.60051e-07 5.09577e-07 -1.52387e-07
-1.24336e-06 7.6111e-07 -2.56799e-07
-6.8287e-07 7.44787e-07 -2.66812e-07
-0.000772088 -0.000361769 -0.000822734
2.59208e-07 6.40056e-07 -1.74901e-07
8.56931e-08 5.07992e-08 -2.47709e-08
-3.87e-07 5.25863e-07 -1.486e-07
-6.0571e-07 1.54402e-06 -4.53177e-07
-9.92243e-07 4.82773e-07 -1.41473e-07
5.05568e-07 4.10013e-07 -9.8185e-08
6.86444e-07 1.30004e-06 -3.45406e-07
3.77126e-07 1.29907e-06 -3.65525e-07
1.53075e-07 2.33382e-08 -7.17286e-09
0.000225948 0.000178716 0.000136541
6.50587e-08 1.00152e-08 -1.01014e-09
-1.70797e-07 5.03015e-07 -1.39236e-07
-7.5938e-07 4.09162e-07 -1.22563e-07
-0.000111921 -0.000764181 -0.000444661
-1.1757e-08 4.98193e-09 9.7525e-11
-8.61147e-07 4.34228e-07 -1.2327e-07
-3.52957e-07 3.52995e-07 -9.55769e-08
-3.70585e-07 6.58723e-07 -1.77501e-07
4.81058e-07 3.59441e-07 -8.41788e-08
2.21159e-07 4.68442e-07 -1.25049e-07
0.000606321 -0.00116708 -0.000111955
-5.59943e-08 3.03861e-09 -2.26241e-09
6.26586e-05 6.11275e-05 -0.000232219
3.57454e-07 4.79263e-07 -1.35593e-07
-2.52895e-07 5.24825e-07 -1.49899e-07
-7.15325e-07 1.34613e-06 -3.98325e-07
1.01013e-08 9.52384e-07 -2.47937e-07
3.89035e-07 3.84063e-07 -9.02954e-08
3.89929e-07 3.94642e-07 -9.44638e-08
4.40459e-07 7.26165e-07 -1.87131e-07
-0.00108879 0.00030428 9.04588e-05
9.31632e-07 5.902e-07 -1.32309e-07
2.83717e-07 1.76266e-07 -4.6815e-08
-4.39626e-07 2.24675e-06 -6.76444e-07
-3.51258e-08 8.98641e-07 -2.51163e-07
-1.78345e-07 8.05678e-08 -1.79663e-08
-3.80153e-07 8.18815e-08 -2.25758e-08
4.49883e-08 6.94676e-09 -3.87515e-09
-0.000287722 -0.000744786 -7.12239e-05
-4.41726e-08 3.84952e-07 -1.05021e-07
-5.80159e-07 3.65134e-07 -1.0409e-07
-2.43564e-07 3.51348e-07 -8.83189e-08
0.000529067 -0.000874647 0.000269826
-0.00150933 0.000137466 0.000530925
8.83042e-09 2.41589e-07 -6.82917e-08
3.18328e-07 9.31011e-07 -2.48855e-07
2.0053e-07 1.03859e-07 -2.14477e-08
-1.617e-07 4.8645e-08 -1.03309e-08
1.79268e-07 4.03766e-07 -1.07594e-07
-3.25887e-08 1.27537e-07 -3.49952e-08
-1.98983e-07 5.98303e-07 -1.56501e-07
-1.46286e-07 3.98695e-07 -1.03071e-07
5.11469e-08 4.98132e-07 -1.46368e-07
-1.59692e-07 6.67818e-08 -2.94629e-08
-5.46713e-07 4.04965e-07 -1.18141e-07
-4.30181e-07 2.80889e-07 -8.06141e-08
-2.56547e-07 1.88414e-07 -6.00875e-08
-5.33902e-07 7.82444e-07 -2.52192e-07
2.98725e-07 3.76849e-07 -1.08338e-07
4.70053e-08 5.95689e-08 -2.22017e-08
3.52918e-08 1.37146e-07 -4.49983e-08
5.97514e-08 5.98655e-08 -1.95259e-08
-3.53894e-07 3.23346e-07 -8.8174e-08
1.88625e-07 6.03496e-08 -1.03558e-08
-1.90367e-07 7.75433e-07 -2.19484e-07
0.000299155 -0.000733135 -0.00061155
2.32274e-07 9.18401e-07 -2.42151e-07
-8.8515e-08 7.12783e-07 -1.99538e-07
1.65357e-07 9.56266e-07 -2.62099e-07
0.000297474 -0.000837106 0.000427536
-5.12548e-08 3.27614e-08 -4.93282e-09
4.44319e-07 3.71042e-07 -8.35617e-08
4.85241e-07 7.14545e-07 -1.75289e-07
1.68103e-07 4.84947e-07 -1.22847e-07
-5.18242e-07 3.03717e-07 -7.77106e-08
-5.85964e-07 4.85775e-07 -1.44e-07
-4.4395e-07 2.37397e-07 -6.44002e-08
-4.70756e-07 3.55699e-07 -9.25683e-08
-2.75925e-08 3.91212e-08 -1.42645e-08
-9.99672e-08 1.28969e-07 -5.08371e-08
1.4356e-07 6.36287e-08 -1.71427e-08
1.95607e-07 7.84545e-08 -2.11429e-08
-4.55992e-08 6.00698e-07 -1.6608e-07
-6.18721e-07 2.42525e-07 -8.98368e-08
1.12728e-08 5.97377e-07 -1.69618e-07
-2.19033e-07 2.92161e-07 -9.14001e-08
-6.68961e-07 5.28544e-07 -1.48878e-07
0.000341737 -0.000446778 0.000208749
-1.08558e-07 6.42751e-09 -1.17674e-09
-2.58137e-06 0.000491337 0.000155183
-3.03253e-07 1.16752e-07 -3.60479e-08
-5.33543e-07 1.88462e-07 -5.51327e-08
-1.89957e-07 4.45577e-07 -1.70285e-07
-1.019e-07 3.396e-07 -1.01707e-07
4.26494e-07 3.38209e-07 -9.35804e-08
3.74375e-07 2.67182e-07 -6.28789e-08
-7.28836e-08 3.76503e-09 1.43673e-10
8.85829e-08 4.67396e-07 -1.27349e-07
6.99956e-08 5.98254e-07 -1.61902e-07
-6.43048e-07 4.4736e-07 -1.22549e-07
2.15453e-07 2.36114e-07 -6.42574e-08
1.51669e-07 6.74471e-08 -1.88279e-08
2.88964e-07 5.83089e-07 -1.50532e-07
-3.63746e-08 8.82015e-08 -3.75154e-08
-7.73803e-08 2.29466e-07 -7.73111e-08
-3.65664e-07 6.8253e-07 -1.9437e-07
-3.33633e-07 1.98079e-07 -5.46613e-08
6.89496e-08 7.60873e-07 -2.10781e-07
-3.95516e-07 1.86638e-07 -4.9417e-08
5.63437e-07 5.20143e-07 -1.39954e-07
-2.58779e-07 6.0429e-08 -1.4867e-08
-0.000782607 -0.000167294 0.000250641
-6.54544e-08 1.1445e-07 -3.08927e-08
3.49278e-07 2.21492e-07 -4.65765e-08
-1.3827e-07 2.31322e-07 -8.62378e-08
-3.34418e-07 1.36193e-07 -3.40095e-08
2.84717e-07 1.59862e-07 -4.09056e-08
-3.84703e-08 2.05396e-07 -7.2744e-08
0.000785235 -0.00083653 5.99629e-06
-0.000264531 -5.35427e-05 0.000213545
-1.77575e-07 1.43349e-07 -5.74031e-08
-4.40218e-07 4.37722e-07 -1.60201e-07
1.97857e-07 1.64425e-07 -4.81752e-08
-1.04702e-07 5.8338e-07 -1.63709e-07
-2.55666e-07 2.12337e-07 -7.24729e-08
8.63833e-08 2.29536e-07 -6.86324e-08
-2.18208e-07 6.83483e-07 -1.90791e-07
0.000401081 -6.62809e-06 0.000303184
-4.23164e-07 4.79851e-07 -1.34758e-07
4.9336e-08 4.08851e-08 -1.17262e-08
0.000612136 -0.000545328 -4.86364e-06
-1.02697e-07 7.31126e-08 -1.7608e-08
0.00107083 -0.000245988 -0.000231797
-3.9336e-07 6.33451e-07 -1.7889e-07
-2.01207e-07 3.78021e-07 -1.03318e-07
8.14803e-05 -0.000350735 4.86095e-05
2.98879e-08 1.96159e-07 -5.87872e-08
-0.000267988 -0.000303998 -0.000262526
1.31595e-07 2.0713e-07 -5.61347e-08
-1.54609e-07 1.8936e-07 -5.09686e-08
-2.82368e-07 1.23232e-07 -4.66797e-08
1.94039e-07 6.76846e-07 -1.87279e-07
8.10171e-08 8.42774e-08 -2.31419e-08
-0.000743442 -0.000781247 -9.8882e-05
1.49826e-07 2.44783e-07 -8.00002e-08
1.27518e-07 7.05517e-08 -1.21916e-08
1.56728e-07 2.04598e-07 -5.21796e-08
-0.000631931 -0.000586693 -2.71258e-05
-5.29385e-07 4.13141e-07 -1.15489e-07
-4.48913e-07 5.35935e-07 -1.49012e-07
1.48551e-07 2.11465e-07 -5.62121e-08
-5.07931e-08 2.0369e-07 -5.51656e-08
1.48292e-08 1.35291e-08 8.30659e-10
0.000176097 0.000741418 -0.00032482
-0.00014442 0.000132229 0.000113982
1.94865e-05 -0.000250863 7.99439e-05
-4.52423e-07 4.11351e-07 -1.12662e-07
-1.59828e-07 1.67994e-07 -4.63679e-08
-3.27221e-07 1.23997e-07 -2.92465e-08
-2.57541e-08 2.05235e-07 -5.35787e-08
2.29745e-05 -0.000193586 0.00010426
8.29769e-05 0.000580386 0.000170927
4.7963e-08 1.06883e-08 1.34089e-09
5.42268e-08 9.9654e-09 -2.8821e-09
-3.62292e-07 4.04054e-07 -1.09538e-07
-2.75574e-08 9.3196e-09 9.82972e-10
1.03883e-05 0.000478861 -0.000172917
-2.65904e-07 4.95207e-07 -1.29878e-07