# vtk DataFile Version 4.2
vtk output
ASCII
DATASET UNSTRUCTURED_GRID

POINTS 343 double
0.00112758 0.00419474 -5.57688e-09
0.00218135 0.00498176 0.00217538
0 0.00419538 0.00112517
0.00193626 0.00195378 0.00194221
0.00518536 0.00239944 0.00503364
0.00519122 0.00382332 0.00639844
0.00766107 0.00475988 0.00500263
0.00625628 0.00484017 0.00369469
0.0068618 0.00327589 0.00691598
0.00501418 0.00498641 0.00500102
0.0041874 0.00111242 0.00999943
0.00529398 0.00207219 0.00790484
0.0041951 -1.32072e-05 0.00831742
0.00201727 0.00200197 0.00803337
0.00429691 0.00252784 0.00999959
0.00699529 0.00643397 0.00694875
0.00644986 0.00617153 0.00518526
0.00226712 0.00218374 0.00514608
0 0.00143586 0.00417514
0.00160035 0.00346599 0.00403681
0.0068671 0.00318102 0.00316549
0.00777421 0.00219639 0.00506789
0 0.00270918 0.00154168
0.00417358 0.00142262 2.19438e-06
0.00502564 0.00218023 0.00220097
0.00398038 0.00352277 0.00160504
0.00134773 -7.04877e-07 0.00405998
0.0041932 -1.35301e-05 0.00169049
0.00264364 0.00695033 8.35782e-07
0.00195013 0.00805238 0.00194499
0.0041123 0.00624458 0.00164704
0.00805447 0.00796803 0.00799941
0.00800207 0.00479865 0.0080245
0.00843693 0.00606044 0.00595174
0.0100756 0.00879787 0.00419837
0.00762782 0.00761949 0.00496708
0.00863724 0.00995788 0.00417125
0.00803632 0.00795284 0.00202178
0.00354697 0.00303356 0.00695977
0.00445204 0.00365724 0.00832456
0.00390094 0.00159607 0.00596947
0.00503517 0.00766156 0.0076773
0.00199978 0.00800737 0.00798943
0.00284789 0.00999506 0.00712689
0.00394189 0.0083953 0.00595806
0 0.00695361 0.00262895
0.00165451 0.00623882 0.00408784
0 0.0040177 0.00850214
0.00232451 0.00498493 0.00766144
0.00143832 0.00417417 0.00999977
0.00721559 0.00710393 0.00999875
0.00614864 0.00596103 0.00841832
0.00206315 0.00794106 0.00474174
0.00305935 0.00694142 0.00646774
0.00159407 0.00607806 0.00592592
0.010046 0.00575756 0.00831839
0 0.00718191 0.00711644
0.00159329 0.00577297 2.27569e-08
0 0.00577432 0.00158701
0.0100586 0.00713065 0.00711851
0.00287604 0.00334744 0.00999971
0.0100135 0.00138305 0.00418097
0.00807015 0.00192486 0.00198524
0.00842936 0.00348297 0.00400342
0.00373493 0.00164382 0.00412893
0.00151911 0.00999973 0.0058148
0.00281212 -6.03156e-06 0.00712791
0.00613348 0.00416175 0.00837688
0.010062 0.00722227 0.00420076
0.00855477 -4.17488e-05 0.00417285
0.00335716 0.00286689 1.34029e-06
0.00270511 0.00153678 0.00999976
0.00282256 -6.55743e-06 0.00283228
0.00481845 0.00518875 0.00755476
0.00316975 0.00314416 0.00316767
0 0.00849157 0.00581511
0.00488455 0.00366346 0.00378781
0.00154319 0.00270851 -3.65817e-08
0.00583556 0.00830619 0.0099985
0.0060294 0.00997828 0.00850576
0.00424402 0.00998852 0.00831755
0.00404183 0.00849345 0.00999863
0.0100709 0.0084395 0.00581827
0.00316494 0.00683178 0.00315123
0 0.00748929 0.00137438
0.00138194 0.0074891 -1.41949e-07
0 0.00287343 0.00335182
0 0.00580816 0.00831736
0 0.00429792 0.00253898
0.00254722 0.00429456 7.94496e-07
0.00143965 0.00581904 0.00999977
0.00520325 0.0064619 0.00640086
0.00362057 0.00650713 0.00823381
0.00695377 0.00259969 0.00999939
0.00802518 0.00192215 0.00803625
0.00696099 -3.05015e-05 0.00308627
0.00602001 0.00164184 0.00361574
0.010026 0.00282156 0.00335851
0 0.00140616 0.00256446
0.00641548 0.00820508 0.0064216
0.00581876 0.00141287 4.50192e-06
0.0060503 0.00353085 0.00160734
0.00318027 0.00999335 0.0058253
0.00863012 0.00995819 0.00583535
0.00256302 0.00140072 8.94018e-07
0.00596628 -2.38137e-05 0.0014989
0.00632556 0.00826523 0.00361972
0.00854798 -4.14412e-05 0.00583632
0.00620367 0.00164954 0.00636624
0.00140601 0.00256404 0.00999985
0.00716378 0.00715329 5.50636e-06
0.00520163 0.00767477 0.00217134
0.00597367 0.00607457 0.00160564
0 0.00686719 0.00578184
0.0100149 0.00135309 0.00257198
0.00177833 0.00360951 0.00640785
0.0100743 0.00843421 0.00263026
0.0084549 0.00615118 0.0041368
0.00603544 0.00997693 0.00149722
0.00695629 -3.01018e-05 0.00692734
0.010012 0.00138294 0.00582348
0.00841676 0.00353513 0.00606337
0.00150463 -1.03617e-06 0.0058151
0 0.0013659 0.00748679
0.00136608 -9.07082e-07 0.00752878
0.010057 0.00681584 0.00578524
0.0058628 0.00847101 4.0761e-06
0 0.0075208 0.00859127
0.00137138 0.00748637 0.00999969
0.00425973 0.00819529 0.00362894
0.00866187 0.00995792 0.00751287
0.0100708 0.00857836 0.00752778
0.00576755 0.00156574 0.0099992
0.00727446 0.0041597 0.00999928
0 0.0057735 0.00666667
0.00137873 0.00999959 0.00752885
0 0.00863025 0.00752641
0.00858332 -4.25327e-05 0.00251393
0.010061 0.00690157 0.00263563
0.00850586 0.00630311 0.00216867
0.00854383 0.00578574 0.00999918
0.00748533 0.00134097 0.00999929
0.0085796 -4.19985e-05 0.00751307
0.01001 0.00131349 0.0074888
0 0.00143551 0.00581971
0.00596114 -2.32324e-05 0.00850555
0.00420055 -1.37014e-05 0.00340139
0.00796454 0.00467297 0.00204003
0.0100386 0.00424648 0.00254621
0.00426341 0.00998794 0.00666624
0.00285918 0.00999505 0.00283206
0.00130975 -7.90281e-07 0.0024183
0 0.00727418 0.00419576
0.0100469 0.00572285 0.00666915
0.0070362 0.00996996 0.00308475
0.00755763 0.00860508 0.00999879
0 0.00574334 0.00336387
0 0.0043297 0.00416652
0.0068953 0.00575922 0.00999915
0.0100238 0.00297101 0.00691771
0.00421125 -1.34658e-05 0.00666678
0.00249765 0.00999579 0.00861119
0.00749068 0.00133164 6.50334e-06
0.00580019 0.00664901 0.00999876
0.0100605 0.00746971 0.00859174
0.00865775 0.00751418 0.009999
0.0069287 0.00299406 5.92235e-06
0.00337966 0.00573836 1.64339e-06
0.00758768 0.00859727 5.87162e-06
0.00758471 0.00996521 0.00139223
0.00581806 0.00684838 4.10577e-06
0.00701183 0.00634418 0.00303701
0.0075067 -3.5063e-05 0.00139392
0.00289156 0.00499573 0.00999957
0.00434399 0.00582481 0.0099991
0.00433618 0.00415736 0.00999934
0.00757794 0.00996642 0.00861568
0.00246705 -5.18561e-06 0.00861149
0.0100497 0.00569221 0.00337011
0 0.00302218 0.00691532
0.0100307 0.00396729 0.00850318
0.00853159 0.00397776 7.75936e-06
0.0100267 0.00265668 0.00155001
0 0.00244495 0.00857025
0.00245973 0.00856649 0.00999919
0.00750067 -3.44639e-05 0.00861546
0.00849569 0.00258466 0.00999929
0.00887447 0.00415274 0.00999931
0.00571896 0.00997956 0.00583352
0.00521744 0.00756856 0.00503303
0.00569255 0.00997943 0.00421643
0.00703109 0.00997066 0.00692667
0.00303508 0.00691216 0.00999916
0.00417984 0.00432056 2.74332e-06
0.00282532 -6.98198e-06 0.00440514
0.00314117 -7.77949e-06 0.0058259
0.0100395 0.00414351 0.00113369
0.00366428 0.00832936 0.00158972
0.0100371 0.00427849 0.004172
0.00669994 0.00574872 5.41634e-06
0.00866613 0.00995718 0.00251202
0 0.00848692 0.00262374
0.00136071 0.00999962 0.00405967
0 0.00885053 0.00419359
0.00422939 0.0088387 2.47405e-06
0.00424463 0.0099875 0.00168932
0.00501518 0.00477849 0.00238128
0.00724593 0.00449215 6.19363e-06
0.00562815 -2.19097e-05 0.00421794
0.0056546 -2.18432e-05 0.00583431
0.00132247 0.00999961 0.00241782
0.00858723 0.00240364 7.93939e-06
0.010036 0.00447111 0.00722155
0.00717756 0.00996927 0.0050019
0.00574826 0.00334556 0.00999932
0.00245012 -5.11741e-06 0.00135732
0.0100178 0.00239329 0.00857143
0.00240191 0.00478877 0.00500004
0.00585179 0.00431074 4.7886e-06
0.00836062 0.00576997 7.17819e-06
0.00552578 0.00998117 0.00722043
0.0100355 0.00427921 0.00583695
0.00545247 0.00998074 0.00277731
0.00710155 -3.1093e-05 0.00500324
0.00286076 0.00999512 0.00440434
0 0.00452174 0.00721958
0.00454389 0.00720964 0.0099988
0.00546259 -2.03747e-05 0.0072202
0.0036147 0.00506779 0.003597
0.00428955 0.00998771 0.00500836
0.00423598 -1.37025e-05 0.0050094
0.00368218 0.00521081 0.00617476
0 0.005744 0.00499998
0 0.00433013 0.00583333
0.00502417 0.00573124 3.72955e-06
0.00500903 0.00632633 0.00355535
0.00538924 -2.05991e-05 0.00277903
0.0100481 0.00569329 0.0050043
0.00370694 0.00640175 0.00484412
0.00575962 0.00498335 0.00999916
0.010052 0.00572271 0.001595
0 0.00666667 0
0.00865082 0.00748016 7.14427e-06
0.00332512 -1.04405e-05 2.61303e-06
0 0.01 0.00666667
0.00504143 0.00998343 0.00999915
0 0.00288419 0.00499914
0.0100671 0.00743688 0.00138239
0.0100618 0.00661454 8.83688e-06
0 0.005 0.01
0.00500587 0.00286884 3.46526e-06
0 0.005 0
0.0100031 -5.29412e-05 0.00334036
0.0100837 0.00994577 0.00666861
0.00422328 0.00726461 2.5735e-06
0.0100242 0.00283289 0.00500386
0.0049907 -1.91406e-05 4.18285e-06
0 0 0.00666667
0.00380398 0.0036095 0.00522664
0.00498458 -1.84258e-05 0.00999878
0.0100001 -5.2484e-05 0.00666944
0 0 0.005
0.00886045 0.00995523 0.00122638
0.0100785 0.00872645 0.00122793
0.0100015 -5.25819e-05 0.00500491
0.0100478 0.00494798 9.22769e-06
0.00121952 0.00121873 -1.43189e-07
0 0.00122008 0.00122008
0 0.00333333 0.01
0 0.00666667 0.01
0.00885164 0.00873646 7.09496e-06
0.0100869 0.00994515 0.00333865
0.00425363 0.00998762 0.00340016
0.0100524 0.00661615 0.00999957
0 0.00333333 0
0 0.00122008 0.00877992
0.00121688 -1.2739e-06 0.00877941
0.00121885 0.00121926 0.0100001
0.00885287 0.00995626 0.00877998
0.00122617 0.00877922 0.00999966
0 0.00877992 0.00877992
0.0100713 0.00872774 0.0087803
0.00673183 0.00997143 4.26295e-06
0.0100148 0.00116662 0.00122892
0.00122838 0.00999919 0.00878027
0.00884188 0.00873769 0.00999912
0.0100381 0.00494954 0.0099997
0 0 0.00333333
0.00665816 -2.92441e-05 6.23053e-06
0.00877721 -4.44397e-05 0.00122826
0.00120872 -1.19313e-06 0.00121248
0 0.00877992 0.00122008
0.00122813 0.00877928 7.72502e-08
0.00122095 0.00999927 0.00121122
0.0100077 0.00116748 0.00878062
0.00877897 0.00117682 0.00999925
0.00665072 -2.85123e-05 0.00999851
0.0087882 0.00117597 8.34829e-06
0.00877031 -4.37191e-05 0.00877956
0.0100339 0.00328099 9.48654e-06
0.00336069 0.00999139 0.00999982
0.00248211 0.00999607 0.00135666
0.00672311 0.00997264 0.00999939
0.0100242 0.00328281 0.00999976
0 0.01 0.005
0.00264414 0.00848301 9.39848e-07
0.0100851 0.00994543 0.00500384
0 0.01 0.00333333
0 0.00166667 0
0.0100049 -5.34759e-05 0.00167544
0 0.00166667 0.01
0 0.00833333 0
0.0100763 0.00827999 8.58729e-06
0.0099987 -5.28168e-05 0.00833416
0.0100888 0.00994481 0.00167386
0.0100823 0.00994589 0.00833414
0.00167982 0.00999729 0.00999988
0 0.01 0.00833333
0.00841213 0.00995846 6.25326e-06
0.00833029 -4.1487e-05 7.98772e-06
0.00832147 -4.08636e-05 0.00999892
0.0084022 0.00995952 0.0099993
0 0 0.00833333
0.0100668 0.00828159 0.00999946
0.00166135 -3.33221e-06 5.41516e-07
0 0 0.00166667
0.00336754 0.00999187 1.40349e-06
0.0100105 0.00161402 0.00999971
0.01002 0.00161315 9.61482e-06
0.0016607 -2.82721e-06 0.01
0.00168236 0.00999795 2.96809e-07
0 0.01 0.00166667
0.0100811 0.00994589 0.00999971
0 0 0.01
0.0100908 0.00994461 8.04987e-06
0.00999711 -5.30804e-05 0.00999927
0 0.01 0.01
0.0100065 -5.39002e-05 9.92065e-06
0 0.01 0
0 0 0
0.00504998 0.00998239 2.80081e-06
0.0033211 -9.39828e-06 0.00999898
0 0.00833333 0.01

CELLS 343 686
1 0
1 1
1 2
1 3
1 4
1 5
1 6
1 7
1 8
1 9
1 10
1 11
1 12
1 13
1 14
1 15
1 16
1 17
1 18
1 19
1 20
1 21
1 22
1 23
1 24
1 25
1 26
1 27
1 28
1 29
1 30
1 31
1 32
1 33
1 34
1 35
1 36
1 37
1 38
1 39
1 40
1 41
1 42
1 43
1 44
1 45
1 46
1 47
1 48
1 49
1 50
1 51
1 52
1 53
1 54
1 55
1 56
1 57
1 58
1 59
1 60
1 61
1 62
1 63
1 64
1 65
1 66
1 67
1 68
1 69
1 70
1 71
1 72
1 73
1 74
1 75
1 76
1 77
1 78
1 79
1 80
1 81
1 82
1 83
1 84
1 85
1 86
1 87
1 88
1 89
1 90
1 91
1 92
1 93
1 94
1 95
1 96
1 97
1 98
1 99
1 100
1 101
1 102
1 103
1 104
1 105
1 106
1 107
1 108
1 109
1 110
1 111
1 112
1 113
1 114
1 115
1 116
1 117
1 118
1 119
1 120
1 121
1 122
1 123
1 124
1 125
1 126
1 127
1 128
1 129
1 130
1 131
1 132
1 133
1 134
1 135
1 136
1 137
1 138
1 139
1 140
1 141
1 142
1 143
1 144
1 145
1 146
1 147
1 148
1 149
1 150
1 151
1 152
1 153
1 154
1 155
1 156
1 157
1 158
1 159
1 160
1 161
1 162
1 163
1 164
1 165
1 166
1 167
1 168
1 169
1 170
1 171
1 172
1 173
1 174
1 175
1 176
1 177
1 178
1 179
1 180
1 181
1 182
1 183
1 184
1 185
1 186
1 187
1 188
1 189
1 190
1 191
1 192
1 193
1 194
1 195
1 196
1 197
1 198
1 199
1 200
1 201
1 202
1 203
1 204
1 205
1 206
1 207
1 208
1 209
1 210
1 211
1 212
1 213
1 214
1 215
1 216
1 217
1 218
1 219
1 220
1 221
1 222
1 223
1 224
1 225
1 226
1 227
1 228
1 229
1 230
1 231
1 232
1 233
1 234
1 235
1 236
1 237
1 238
1 239
1 240
1 241
1 242
1 243
1 244
1 245
1 246
1 247
1 248
1 249
1 250
1 251
1 252
1 253
1 254
1 255
1 256
1 257
1 258
1 259
1 260
1 261
1 262
1 263
1 264
1 265
1 266
1 267
1 268
1 269
1 270
1 271
1 272
1 273
1 274
1 275
1 276
1 277
1 278
1 279
1 280
1 281
1 282
1 283
1 284
1 285
1 286
1 287
1 288
1 289
1 290
1 291
1 292
1 293
1 294
1 295
1 296
1 297
1 298
1 299
1 300
1 301
1 302
1 303
1 304
1 305
1 306
1 307
1 308
1 309
1 310
1 311
1 312
1 313
1 314
1 315
1 316
1 317
1 318
1 319
1 320
1 321
1 322
1 323
1 324
1 325
1 326
1 327
1 328
1 329
1 330
1 331
1 332
1 333
1 334
1 335
1 336
1 337
1 338
1 339
1 340
1 341
1 342

CELL_TYPES 343
1
1
1
1
1
1
1
1
1
1
1
1
1
1
1
1
1
1
1
1
1
1
1
1
1
1
1
1
1
1
1
1
1
1
1
1
1
1
1
1
1
1
1
1
1
1
1
1
1
1
1
1
1
1
1
1
1
1
1
1
1
1
1
1
1
1
1
1
1
1
1
1
1
1
1
1
1
1
1
1
1
1
1
1
1
1
1
1
1
1
1
1
1
1
1
1
1
1
1
1
1
1
1
1
1
1
1
1
1
1
1
1
1
1
1
1
1
1
1
1
1
1
1
1
1
1
1
1
1
1
1
1
1
1
1
1
1
1
1
1
1
1
1
1
1
1
1
1
1
1
1
1
1
1
1
1
1
1
1
1
1
1
1
1
1
1
1
1
1
1
1
1
1
1
1
1
1
1
1
1
1
1
1
1
1
1
1
1
1
1
1
1
1
1
1
1
1
1
1
1
1
1
1
1
1
1
1
1
1
1
1
1
1
1
1
1
1
1
1
1
1
1
1
1
1
1
1
1
1
1
1
1
1
1
1
1
1
1
1
1
1
1
1
1
1
1
1
1
1
1
1
1
1
1
1
1
1
1
1
1
1
1
1
1
1
1
1
1
1
1
1
1
1
1
1
1
1
1
1
1
1
1
1
1
1
1
1
1
1
1
1
1
1
1
1
1
1
1
1
1
1
1
1
1
1
1
1
1
1
1
1
1
1
1
1
1
1
1
1
1
1
1
1
1
1
1
1
1
1
1
1
1
1
1
1
1
1
1
1
1
1
1
1

POINT_DATA 343
FIELD FieldData 8

NodeID_(#) 1 343 int
0
1
2
3
4
5
6
7
8
9
10
11
12
13
14
15
16
17
18
19
20
21
22
23
24
25
26
27
28
29
30
31
32
33
34
35
36
37
38
39
40
41
42
43
44
45
46
47
48
49
50
51
52
53
54
55
56
57
58
59
60
61
62
63
64
65
66
67
68
69
70
71
72
73
74
75
76
77
78
79
80
81
82
83
84
85
86
87
88
89
90
91
92
93
94
95
96
97
98
99
100
101
102
103
104
105
106
107
108
109
110
111
112
113
114
115
116
117
118
119
120
121
122
123
124
125
126
127
128
129
130
131
132
133
134
135
136
137
138
139
140
141
142
143
144
145
146
147
148
149
150
151
152
153
154
155
156
157
158
159
160
161
162
163
164
165
166
167
168
169
170
171
172
173
174
175
176
177
178
179
180
181
182
183
184
185
186
187
188
189
190
191
192
193
194
195
196
197
198
199
200
201
202
203
204
205
206
207
208
209
210
211
212
213
214
215
216
217
218
219
220
221
222
223
224
225
226
227
228
229
230
231
232
233
234
235
236
237
238
239
240
241
242
243
244
245
246
247
248
249
250
251
252
253
254
255
256
257
258
259
260
261
262
263
264
265
266
267
268
269
270
271
272
273
274
275
276
277
278
279
280
281
282
283
284
285
286
287
288
289
290
291
292
293
294
295
296
297
298
299
300
301
302
303
304
305
306
307
308
309
310
311
312
313
314
315
316
317
318
319
320
321
322
323
324
325
326
327
328
329
330
331
332
333
334
335
336
337
338
339
340
341
342

Component_(#) 1 343 int
0
0
0
0
0
0
0
0
0
0
0
0
0
0
0
0
0
0
0
0
0
0
0
0
0
0
0
0
0
0
0
0
0
0
0
0
0
0
0
0
0
0
0
0
0
0
0
0
0
0
0
0
0
0
0
0
0
0
0
0
0
0
0
0
0
0
0
0
0
0
0
0
0
0
0
0
0
0
0
0
0
0
0
0
0
0
0
0
0
0
0
0
0
0
0
0
0
0
0
0
0
0
0
0
0
0
0
0
0
0
0
0
0
0
0
0
0
0
0
0
0
0
0
0
0
0
0
0
0
0
0
0
0
0
0
0
0
0
0
0
0
0
0
0
0
0
0
0
0
0
0
0
0
0
0
0
0
0
0
0
0
0
0
0
0
0
0
0
0
0
0
0
0
0
0
0
0
0
0
0
0
0
0
0
0
0
0
0
0
0
0
0
0
0
0
0
0
0
0
0
0
0
0
0
0
0
0
0
0
0
0
0
0
0
0
0
0
0
0
0
0
0
0
0
0
0
0
0
0
0
0
0
0
0
0
0
0
0
0
0
0
0
0
0
0
0
0
0
0
0
0
0
0
0
0
0
0
0
0
0
0
0
0
0
0
0
0
0
0
0
0
0
0
0
0
0
0
0
0
0
0
0
0
0
0
0
0
0
0
0
0
0
0
0
0
0
0
0
0
0
0
0
0
0
0
0
0
0
0
0
0
0
0
0
0
0
0
0
0
0
0
0
0
0
0
0
0
0
0
0
0
0
0
0
0
0
0
0
0
0
0
0
0

NodalMass_(kg) 1 343 double
3.15563e-06
1.41304e-05
2.20912e-06
1.71484e-05
8.42e-06
9.09306e-06
9.93033e-06
7.52198e-06
6.81096e-06
5.58223e-06
3.10888e-06
1.07575e-05
4.87011e-06
1.64955e-05
3.0246e-06
8.05984e-06
6.703e-06
1.0877e-05
4.18978e-06
8.16106e-06
6.14143e-06
1.17902e-05
2.23114e-06
4.25176e-06
1.09915e-05
7.41467e-06
4.21871e-06
3.92484e-06
3.08766e-06
1.31268e-05
7.72627e-06
1.65404e-05
1.19037e-05
7.29666e-06
3.81683e-06
1.11001e-05
3.81317e-06
1.39137e-05
6.37414e-06
8.00975e-06
7.6712e-06
1.18847e-05
1.6399e-05
2.78633e-06
8.93599e-06
2.58087e-06
7.57362e-06
4.23241e-06
1.31286e-05
3.80168e-06
2.7746e-06
7.16776e-06
1.21307e-05
5.11765e-06
8.19728e-06
4.58094e-06
2.79503e-06
3.26126e-06
4.12443e-06
2.11915e-06
3.35177e-06
3.61669e-06
1.56838e-05
7.33679e-06
8.24695e-06
5.00369e-06
2.82625e-06
7.20276e-06
3.26815e-06
4.18751e-06
2.02785e-06
2.42152e-06
3.11835e-06
5.97459e-06
5.87101e-06
4.09374e-06
5.45463e-06
2.28825e-06
4.49759e-06
4.38192e-06
4.50892e-06
4.39234e-06
4.27273e-06
5.32031e-06
1.53201e-06
2.38869e-06
2.02885e-06
4.38798e-06
3.17972e-06
3.14298e-06
4.61567e-06
5.87645e-06
8.18088e-06
2.48341e-06
1.53815e-05
3.49683e-06
7.35227e-06
2.01314e-06
2.0408e-06
7.98183e-06
4.41293e-06
7.1389e-06
1.20123e-06
5.03343e-06
1.61257e-06
4.12601e-06
8.73748e-06
4.37849e-06
7.97173e-06
2.13557e-06
3.38137e-06
9.48623e-06
7.40262e-06
1.80226e-06
2.10222e-06
7.98889e-06
1.87983e-06
7.44814e-06
4.19782e-06
2.37156e-06
4.31705e-06
6.06441e-06
4.30905e-06
2.16843e-06
1.8986e-06
1.81294e-06
3.89762e-06
2.44299e-06
1.65628e-06
8.01374e-06
1.64513e-06
2.3931e-06
3.01363e-06
2.99431e-06
1.36541e-06
1.87293e-06
2.09622e-06
1.94762e-06
1.87618e-06
6.37913e-06
4.58628e-06
2.02767e-06
1.61999e-06
2.41284e-06
3.8865e-06
4.44973e-06
2.29839e-06
1.17349e-05
3.11811e-06
1.354e-06
3.45063e-06
1.81846e-06
2.9382e-06
1.37381e-06
2.41464e-06
2.10451e-06
2.63927e-06
2.14166e-06
1.7943e-06
3.19976e-06
1.36989e-06
2.43489e-06
2.08158e-06
1.3601e-06
2.17203e-06
1.89924e-06
3.16996e-06
2.6119e-06
2.37677e-06
1.60225e-06
1.90684e-06
5.49206e-06
1.87878e-06
3.14313e-06
2.97301e-06
1.18454e-06
1.89263e-06
2.04166e-06
2.73572e-06
2.42405e-06
3.23083e-06
3.19752e-06
3.2142e-06
1.94492e-06
1.61196e-06
1.86876e-06
3.22435e-06
2.1114e-06
2.96917e-06
6.15288e-06
2.3097e-06
2.39729e-06
2.38029e-06
2.64508e-06
1.66557e-06
1.82377e-06
2.06583e-06
5.73271e-06
2.08467e-06
2.18324e-06
2.43522e-06
3.1188e-06
3.17316e-06
2.05447e-06
1.9592e-06
3.05718e-06
6.44327e-06
2.08796e-06
2.72615e-06
2.15709e-06
1.86812e-06
2.0028e-06
2.10999e-06
2.88994e-06
2.3222e-06
2.3979e-06
1.97629e-06
6.4127e-06
2.16225e-06
3.29198e-06
2.10223e-06
2.66566e-06
1.94415e-06
2.91865e-06
2.58116e-06
2.11703e-06
2.09534e-06
1.91719e-06
7.06046e-06
2.25203e-06
2.06378e-06
6.28159e-06
2.12147e-06
2.90924e-06
2.12921e-06
6.4487e-06
1.41701e-06
2.0682e-06
6.58062e-06
2.52584e-06
2.39732e-06
7.42191e-07
2.22368e-06
7.06751e-07
7.00657e-07
8.93749e-07
2.53536e-06
2.26535e-06
1.33607e-06
7.84725e-07
2.32303e-06
6.06694e-07
6.68276e-07
6.84307e-07
2.51242e-06
2.31629e-06
7.8367e-07
6.80839e-07
6.22692e-06
6.7471e-07
6.65305e-07
7.01158e-07
1.8232e-06
1.90695e-06
6.86722e-07
7.04792e-07
1.86445e-06
2.28572e-06
6.8045e-07
7.16005e-07
1.82373e-06
6.01079e-07
2.02791e-06
7.4579e-07
5.74423e-07
1.80052e-06
1.454e-06
2.2702e-06
1.80636e-06
2.15356e-06
1.79089e-06
1.79456e-06
6.8231e-07
2.24737e-06
1.45239e-06
1.79556e-06
6.97875e-07
6.24265e-07
6.62717e-07
1.44627e-06
1.40138e-06
2.15258e-06
1.82851e-06
1.3994e-06
1.43932e-06
2.19226e-06
6.97732e-07
1.77726e-06
1.79162e-06
6.54258e-07
7.3397e-07
2.34895e-06
7.10392e-07
6.56982e-07
6.26314e-07
2.18926e-06
6.12493e-07
6.03901e-07
5.92831e-07
5.12031e-07
5.11667e-07
4.9467e-07
4.97016e-07
4.96269e-07
5.33079e-07
4.94191e-07
4.97855e-07
4.86862e-07
4.90626e-07
4.94649e-07
4.94954e-07
4.91922e-07
4.89615e-07
4.96354e-07
4.95189e-07
4.82188e-07
1.10854e-06
5.3299e-07
5.44763e-07
5.36655e-07
5.15417e-07
5.01772e-07
5.53774e-07
5.53774e-07
5.53774e-07
5.53774e-07
5.53774e-07
5.53774e-07
5.50785e-07
5.50785e-07
7.45291e-07
7.11668e-07
4.9897e-07

NodalForce_(N) 3 343 double
4.08935e-07 5.09627e-07 -9.77218e-08
8.96018e-07 6.69956e-06 -2.29671e-06
0.000938508 0.00085887 0.000771132
2.10318e-05 7.21455e-06 -2.9787e-06
4.17099e-05 3.04662e-05 -9.16046e-06
3.269e-05 2.82133e-05 -9.72121e-06
2.6155e-05 6.88531e-05 -2.22333e-05
1.00198e-05 3.50665e-05 -1.11376e-05
3.86393e-05 3.97359e-05 -1.31743e-05
7.67849e-06 1.55862e-05 -5.04089e-06
2.0725e-05 8.92006e-06 -2.65414e-06
7.10654e-05 4.20643e-05 -1.27812e-05
3.6611e-05 1.46607e-05 -3.49239e-06
3.26011e-05 5.57604e-06 -3.32875e-06
1.59656e-05 7.43624e-06 -2.83612e-06
4.57877e-06 4.36597e-05 -1.48775e-05
4.27035e-08 3.15343e-05 -9.81496e-06
1.96843e-05 5.67284e-06 -2.22165e-06
-0.00261291 0.00141147 -0.000498679
5.99361e-06 1.47038e-06 -3.1305e-07
2.4467e-05 3.743e-05 -1.17048e-05
8.38953e-05 9.22947e-05 -2.91067e-05
-0.00117371 -0.00310836 -0.00168099
1.38264e-05 1.27023e-05 -3.39698e-06
4.40195e-05 4.10759e-05 -1.48193e-05
9.61073e-06 1.47044e-05 -6.337e-06
7.12943e-06 6.41666e-07 -5.01069e-07
2.15258e-05 1.18925e-05 -4.10037e-06
-4.49736e-06 2.34868e-06 -8.45473e-07
-1.32877e-05 3.8524e-06 -1.70362e-06
-9.21487e-06 1.32261e-05 -6.12423e-06
-2.20679e-05 0.000119798 -4.10218e-05
5.13784e-05 8.73746e-05 -3.03215e-05
7.54836e-06 5.91978e-05 -1.91027e-05
-1.67564e-05 4.25638e-05 -1.25675e-05
-2.77849e-05 7.39478e-05 -2.20599e-05
-2.62404e-05 3.2712e-05 -9.12058e-06
-6.43223e-05 0.000105084 -3.17888e-05
1.86974e-05 9.18375e-06 -3.11114e-06
3.01603e-05 1.73951e-05 -7.46815e-06
3.65903e-05 1.73646e-05 -4.65913e-06
-1.09859e-05 3.37807e-05 -1.18526e-05
-3.44868e-06 5.39401e-06 -8.18585e-07
-6.53528e-06 2.6476e-06 -2.49776e-07
-1.77602e-05 1.62545e-05 -3.49379e-06
0.0019241 0.00173303 -0.000715007
-3.94774e-07 2.17524e-06 -5.69987e-07
-0.000793997 0.00207134 -0.000127994
9.6506e-06 5.46063e-06 -2.0725e-06
3.06702e-06 7.19314e-07 -1.39928e-07
2.67431e-06 1.60835e-05 -5.91784e-06
1.26036e-05 2.95467e-05 -1.14445e-05
-6.80343e-06 3.5207e-06 -7.48277e-07
-8.07026e-07 3.8879e-06 -1.06372e-06
1.63601e-06 1.69054e-06 -6.01503e-07
1.57695e-05 5.04466e-05 -1.68657e-05
0.00163074 0.001099 0.00130448
-1.27991e-06 1.06779e-06 -1.93059e-07
-0.000224851 0.000123113 -0.000729976
5.90078e-07 2.32486e-05 -7.61551e-06
9.12104e-06 3.07605e-06 -1.53197e-06
3.31459e-05 4.39822e-05 -1.37024e-05
9.62754e-05 0.000134182 -4.21153e-05
3.36417e-05 6.35608e-05 -2.02677e-05
3.41276e-05 1.76795e-05 -5.00248e-06
-5.06026e-06 2.87882e-07 5.03328e-08
1.41145e-05 3.88773e-06 -9.60175e-07
3.23793e-05 3.10013e-05 -1.1623e-05
-5.06085e-06 3.63721e-05 -1.11102e-05
4.64105e-05 4.06355e-05 -1.26658e-05
2.04095e-06 2.98975e-06 -9.93053e-07
9.52e-06 2.67906e-06 -1.032e-06
1.34295e-05 4.59265e-06 -1.11571e-06
1.2883e-05 1.42283e-05 -5.81366e-06
1.01996e-05 6.51318e-06 -2.32566e-06
0.00293503 0.00125836 0.000553428
1.39633e-05 1.58075e-05 -5.40876e-06
1.18297e-06 3.87049e-07 -1.14518e-07
-3.52287e-06 1.79647e-05 -6.47833e-06
-1.70133e-05 1.90097e-05 -6.8693e-06
-1.21463e-05 1.0196e-05 -3.37782e-06
-2.80433e-06 9.15625e-06 -2.90774e-06
-1.19997e-05 4.7129e-05 -1.45703e-05
-3.73213e-06 4.99366e-06 -1.74594e-06
0.000162917 -0.00195833 0.000871953
-1.78873e-06 1.79965e-07 -1.03957e-08
0.00013715 -0.00128509 0.000829547
-0.00196294 -0.000623296 5.22993e-05
-0.000713597 0.000694004 -0.000285819
-7.45098e-07 2.43821e-06 -8.87967e-07
2.37144e-06 5.70234e-07 -1.78026e-07
3.60401e-07 1.70435e-05 -5.61873e-06
5.70594e-06 8.55683e-06 -4.20713e-06
2.05591e-05 1.54716e-05 -5.193e-06
0.000144782 0.000127312 -3.93838e-05
3.19537e-05 2.44284e-05 -7.56385e-06
4.45509e-05 3.79604e-05 -1.19228e-05
1.22543e-05 2.38341e-05 -7.52107e-06
-0.000211744 0.000320388 0.00010565
-1.88688e-05 3.81592e-05 -1.1e-05
2.12547e-05 2.27556e-05 -6.87723e-06
1.79082e-05 3.44612e-05 -1.2084e-05
-3.29338e-06 1.59432e-06 -3.44983e-07
-2.97931e-05 4.27816e-05 -1.25155e-05
2.9598e-06 1.99277e-06 -5.21636e-07
3.14706e-05 2.24837e-05 -7.63608e-06
-3.34881e-05 4.18773e-05 -1.18975e-05
5.24085e-05 4.22039e-05 -1.28347e-05
5.94846e-05 4.24054e-05 -1.24791e-05
2.74088e-06 1.70019e-07 -1.12848e-07
-1.39255e-05 2.09875e-05 -6.74541e-06
-3.13459e-05 3.11089e-05 -9.80519e-06
-1.15201e-05 3.06966e-05 -1.11264e-05
-0.00173036 -0.000540603 -0.00175804
1.75586e-05 2.57571e-05 -7.97224e-06
7.93001e-06 1.98355e-06 -1.13591e-06
-8.67263e-06 2.11517e-05 -6.33458e-06
-1.09392e-06 6.18943e-05 -1.90918e-05
-3.02211e-05 1.96875e-05 -5.52979e-06
2.63928e-05 1.6525e-05 -4.55509e-06
4.35286e-05 5.22031e-05 -1.62779e-05
3.4539e-05 5.15939e-05 -1.69083e-05
8.13761e-06 9.99518e-07 -3.71036e-07
0.000202501 0.00017197 0.000441382
3.36371e-06 4.26191e-07 -5.85931e-08
1.63418e-07 2.0003e-05 -6.30792e-06
-2.20528e-05 1.68403e-05 -5.35448e-06
-0.000224256 -0.00123831 -0.00101082
3.16497e-07 2.00622e-07 -6.76164e-08
-2.14751e-05 1.76254e-05 -3.91251e-06
-8.1688e-06 1.40998e-05 -4.47454e-06
-5.04155e-06 2.61351e-05 -8.46679e-06
2.62205e-05 1.45364e-05 -4.55624e-06
1.79663e-05 1.84612e-05 -6.7113e-06
0.00145866 -0.00199175 -9.7196e-05
-1.34493e-06 1.43673e-07 -7.21075e-08
-8.32766e-07 0.000355851 -0.000264
1.98911e-05 1.92414e-05 -6.00524e-06
-3.4135e-06 2.1119e-05 -6.46967e-06
-9.62327e-06 5.44947e-05 -1.66852e-05
1.71653e-05 3.74485e-05 -1.32052e-05
2.17797e-05 1.55143e-05 -4.71395e-06
2.09862e-05 1.59081e-05 -4.49349e-06
2.69585e-05 2.91877e-05 -8.99704e-06
-0.00202527 0.000682924 -2.45662e-05
4.7372e-05 2.39079e-05 -6.45202e-06
1.46401e-05 7.12934e-06 -2.02854e-06
1.46413e-05 9.14325e-05 -2.86797e-05
9.45537e-06 3.63638e-05 -1.11668e-05
-4.8761e-06 3.22893e-06 -6.81725e-07
-1.12695e-05 3.43204e-06 -5.91244e-07
2.6577e-06 3.14568e-07 -2.03546e-07
-0.000806663 -0.00128567 -1.96256e-05
3.60048e-06 1.52708e-05 -4.92688e-06
-1.68526e-05 1.47359e-05 -3.91048e-06
-2.75214e-06 1.39473e-05 -4.90781e-06
0.000850039 -0.00166871 0.000463866
-0.0027426 0.000527118 0.0012087
5.59536e-06 9.45156e-06 -3.73358e-06
2.5091e-05 3.7115e-05 -1.1895e-05
1.00024e-05 4.21842e-06 -9.58107e-07
-4.17283e-06 1.93579e-06 -5.27369e-07
1.2241e-05 1.63185e-05 -4.94988e-06
2.03828e-06 4.99416e-06 -2.02832e-06
1.04127e-06 2.36546e-05 -7.84161e-06
1.31365e-06 1.57707e-05 -5.55587e-06
9.40035e-06 2.03673e-05 -6.69963e-06
-3.08837e-06 2.96161e-06 -1.40401e-06
-1.55441e-05 1.65251e-05 -5.16404e-06
-1.28038e-05 1.13812e-05 -3.27181e-06
-6.31349e-06 7.84998e-06 -2.69414e-06
-7.51537e-06 3.16193e-05 -1.00596e-05
1.65458e-05 1.51681e-05 -4.77216e-06
5.39971e-06 2.25293e-06 -1.40412e-06
6.69366e-06 5.24918e-06 -2.743e-06
4.4408e-06 2.32106e-06 -1.14083e-06
-7.99535e-06 1.29001e-05 -4.40775e-06
9.14463e-06 2.49803e-06 -4.97318e-07
2.2197e-06 3.1224e-05 -9.57854e-06
0.000559234 -0.00105333 -0.000910211
2.22919e-05 3.64413e-05 -1.19708e-05
5.32912e-06 2.91201e-05 -9.09675e-06
1.73843e-05 3.86818e-05 -1.17775e-05
0.000459884 -0.00137797 0.000890219
-4.15119e-07 1.28793e-06 -4.2271e-07
2.33093e-05 1.501e-05 -4.06648e-06
3.08211e-05 2.8527e-05 -9.14648e-06
1.46149e-05 1.92052e-05 -6.45114e-06
-1.39991e-05 1.21584e-05 -2.92629e-06
-1.12908e-05 1.93833e-05 -5.247e-06
-1.27032e-05 9.57596e-06 -2.22869e-06
-1.19191e-05 1.42034e-05 -4.01357e-06
1.82989e-06 1.48506e-06 -1.02675e-06
-5.90185e-08 5.48185e-06 -2.40614e-06
7.32846e-06 2.59249e-06 -7.25518e-07
9.67837e-06 3.20119e-06 -8.8127e-07
5.10351e-06 2.43921e-05 -7.44034e-06
-1.65771e-05 1.00875e-05 -3.4408e-06
8.03817e-06 2.39779e-05 -7.64257e-06
-3.70898e-06 1.20669e-05 -4.10659e-06
-1.90177e-05 2.13124e-05 -6.00947e-06
0.000803009 -0.000985596 0.000249044
-2.72759e-06 3.05763e-07 4.53443e-08
2.67139e-05 0.000943861 0.000448322
-8.94348e-06 4.85951e-06 -1.58875e-06
-1.62746e-05 7.75939e-06 -2.02329e-06
4.0543e-06 1.83269e-05 -6.98501e-06
1.04164e-06 1.39558e-05 -4.59919e-06
2.2278e-05 1.36236e-05 -3.95536e-06
1.93108e-05 1.077e-05 -2.78615e-06
-1.93949e-06 1.92124e-07 4.05058e-08
9.07161e-06 1.89461e-05 -5.82587e-06
1.10721e-05 2.37252e-05 -7.76968e-06
-1.76019e-05 1.79405e-05 -4.78212e-06
1.40551e-05 9.3164e-06 -3.5497e-06
8.15392e-06 2.76802e-06 -8.89128e-07
1.94566e-05 2.33294e-05 -7.40384e-06
3.90604e-06 3.54811e-06 -1.45396e-06
1.2797e-06 9.50994e-06 -3.52701e-06
-5.4866e-06 2.792e-05 -8.81841e-06
-8.6519e-06 7.90596e-06 -2.3315e-06
1.28636e-05 3.03086e-05 -9.81003e-06
-1.17725e-05 7.57236e-06 -1.74173e-06
2.98916e-05 2.08885e-05 -6.26108e-06
-7.50594e-06 2.48957e-06 -3.2776e-07
-0.00148985 -0.000244424 0.000644676
1.33972e-06 4.47201e-06 -1.95291e-06
1.77893e-05 8.95665e-06 -2.19071e-06
3.82962e-06 9.49485e-06 -3.15673e-06
-9.65117e-06 5.4881e-06 -1.05721e-06
1.43254e-05 6.46757e-06 -1.68532e-06
6.63258e-06 8.03083e-06 -2.85646e-06
0.00138436 -0.00155166 7.46687e-05
-0.000851734 4.86451e-05 0.000242729
-3.28216e-06 6.04373e-06 -2.60367e-06
-5.70016e-06 1.77621e-05 -5.86858e-06
1.04917e-05 6.63118e-06 -2.0872e-06
3.57449e-06 2.32983e-05 -7.3581e-06
-1.39222e-06 8.51053e-06 -2.47335e-06
9.48682e-06 8.91372e-06 -3.87749e-06
-4.94771e-07 2.77061e-05 -8.39268e-06
0.000975279 1.49097e-05 0.000756956
-1.04499e-05 1.9609e-05 -6.02568e-06
2.77171e-06 1.67577e-06 -5.65966e-07
0.00110553 -0.00102322 -9.55517e-06
-2.14343e-06 2.94216e-06 -1.08335e-06
0.00199285 -0.000214062 -0.000459932
-7.86599e-06 2.55955e-05 -7.75067e-06
-3.572e-06 1.54015e-05 -4.70714e-06
4.42036e-05 -0.000593542 0.000199351
5.19407e-06 8.10478e-06 -2.77309e-06
-0.000373399 -0.000381852 -0.000344938
7.57526e-06 8.32651e-06 -2.57796e-06
-3.42576e-06 7.57687e-06 -2.33075e-06
-7.33679e-06 5.25202e-06 -2.11568e-06
1.62949e-05 2.70992e-05 -8.70596e-06
4.53554e-06 3.4239e-06 -1.08763e-06
-0.00120686 -0.00119237 -0.000176673
1.42775e-05 9.74042e-06 -3.23238e-06
6.39889e-06 2.86269e-06 -7.03178e-07
8.77098e-06 8.23058e-06 -2.46965e-06
-0.00103945 -0.000922228 -1.26873e-05
-1.54384e-05 1.67001e-05 -4.84425e-06
-1.12757e-05 2.16225e-05 -6.41967e-06
8.41967e-06 8.49576e-06 -2.62318e-06
2.95203e-07 8.28682e-06 -2.53755e-06
1.41197e-06 5.76137e-07 -2.62248e-08
-2.89433e-05 0.00135793 -0.000787585
-0.000426142 0.000357989 0.000342918
-0.000132823 -0.000342148 0.000294605
-1.25765e-05 1.66901e-05 -4.98003e-06
-4.15519e-06 6.75063e-06 -1.94892e-06
-9.7326e-06 5.04378e-06 -8.74291e-07
2.14777e-06 8.10503e-06 -2.83262e-06
0.000193082 -0.000429495 0.000343898
-1.21115e-05 0.000893302 0.000296112
2.43364e-06 4.49173e-07 4.10783e-08
2.98387e-06 4.31971e-07 -1.79835e-07
-7.61738e-06 1.61464e-05 -5.5286e-06
-1.74489e-07 3.67275e-07 -3.87775e-08
-0.000108979 0.00100632 -0.000398489
-3.07484e-06 1.96804e-05 -6.578e-06
-5.67478e-06 3.96335e-06 -1.12205e-06
1.79907e-05 2.78138e-05 -8.38834e-06
-8.2402e-07 2.32124e-07 -2.43682e-07