# vtk DataFile Version 4.2
vtk output
ASCII
DATASET UNSTRUCTURED_GRID

POINTS 343 double
0.00147244 0.00420946 -1.4854e-05
0.00284807 0.0050105 0.00214706
0 0.00419538 0.00112517
0.00253564 0.00197956 0.00191696
0.00674294 0.0024672 0.00496614
0.00674321 0.003895 0.00634287
0.00986774 0.00487743 0.00490023
0.008083 0.00493275 0.00359771
0.00887371 0.00337335 0.00684873
0.00650656 0.00505786 0.00493522
0.00544749 0.00116663 0.0099681
0.00688269 0.00214202 0.00785806
0.00546915 3.78284e-05 0.0082797
0.00264343 0.0020276 0.00800769
0.00558347 0.00258351 0.00996729
0.00901156 0.00654717 0.00688175
0.00832101 0.00627301 0.00510184
0.00296805 0.0022126 0.00511799
0 0.00143586 0.00417514
0.00209499 0.00348604 0.00401709
0.00886761 0.00327749 0.00305123
0.0100351 0.00230405 0.00496469
0 0.00270918 0.00154168
0.00540845 0.00147742 -7.55019e-05
0.0065215 0.00224742 0.00211413
0.00516548 0.00357651 0.00153687
0.00176982 1.62954e-05 0.00404354
0.0054541 3.70839e-05 0.00161947
0.00342012 0.00698569 -4.40834e-05
0.00253991 0.00807702 0.00191916
0.00532162 0.00630214 0.00157634
0.010327 0.00811553 0.0079357
0.0103014 0.00492397 0.00796201
0.0108253 0.00620296 0.00585212
0.0128121 0.00900092 0.00404865
0.0097885 0.00775548 0.00486415
0.0110105 0.0101445 0.00404276
0.010278 0.00810193 0.00187234
0.00462686 0.00308072 0.00691848
0.00578738 0.00371674 0.00828484
0.00509485 0.00164552 0.00592292
0.00650647 0.00773951 0.00762956
0.00261051 0.00803179 0.00796473
0.00368675 0.0100406 0.00709245
0.00510611 0.00845571 0.00590996
0 0.00695361 0.00262895
0.00216076 0.00626021 0.0040664
0 0.0040177 0.00850214
0.00303688 0.00501524 0.00763274
0.00188059 0.00419266 0.00998247
0.00927003 0.00722716 0.00995868
0.00793876 0.00605544 0.00837072
0.00269124 0.00796623 0.00471525
0.00398318 0.00698037 0.00642841
0.00208294 0.00609829 0.00590595
0.0128311 0.005931 0.00823844
0 0.00718191 0.00711644
0.00207461 0.00579405 -2.23977e-05
0 0.00577432 0.00158701
0.0128263 0.00731837 0.00702064
0.00374249 0.00338463 0.00997532
0.0128251 0.00152228 0.00403113
0.010393 0.00203538 0.00183298
0.0108388 0.00360928 0.00387408
0.00487768 0.00169134 0.00408015
0.00197916 0.0100201 0.00579566
0.00368306 2.76301e-05 0.00709371
0.00793743 0.00424952 0.00832825
0.0128205 0.00741601 0.00405175
0.0110274 6.0994e-05 0.0040444
0.00435118 0.00291146 -5.85556e-05
0.00352711 0.00157087 0.00997669
0.00369315 2.65587e-05 0.00279541
0.00625238 0.00525567 0.00750926
0.00413571 0.00318602 0.00312667
0 0.00849157 0.00581511
0.00634361 0.00373012 0.00371687
0.0020155 0.00272916 -2.14612e-05
0.00750496 0.00840395 0.00996574
0.00773485 0.0100921 0.00846058
0.00547032 0.0100608 0.00827878
0.00521808 0.00855495 0.00997093
0.0128192 0.00863843 0.00569806
0.00411553 0.00687325 0.00310945
0 0.00748929 0.00137438
0.00179804 0.00750592 -1.85726e-05
0 0.00287343 0.00335182
0 0.00580816 0.00831736
0 0.00429792 0.00253898
0.00330433 0.00432898 -4.20762e-05
0.0018811 0.0058365 0.00998265
0.00673522 0.00653924 0.0063434
0.00470242 0.00655493 0.00819963
0.00898432 0.00269411 0.00995688
0.0103581 0.00203147 0.00797278
0.0090075 5.42244e-05 0.00296832
0.00780499 0.0017203 0.00352079
0.0128219 0.00297086 0.0031937
0 0.00140616 0.00256446
0.00825547 0.00831536 0.0063536
0.0075173 0.00148887 -0.000112838
0.00781458 0.00361567 0.00149379
0.00411435 0.0100455 0.00578642
0.0110097 0.0101436 0.0057329
0.00333249 0.00143392 -4.25106e-05
0.0077272 4.68327e-05 0.00138695
0.00812899 0.00837509 0.00352162
0.0110257 6.10905e-05 0.00573635
0.00804944 0.00173058 0.00630059
0.00184103 0.00258179 0.00998313
0.00916953 0.00727819 -0.000143309
0.00670223 0.00775785 0.0020813
0.00769367 0.00616689 0.00149363
0 0.00686719 0.00578184
0.0128163 0.0014917 0.00239605
0.00232793 0.00363246 0.00638541
0.0128053 0.00863494 0.0024551
0.0108413 0.00629409 0.00400979
0.00771989 0.0100954 0.00138396
0.00901447 5.28633e-05 0.00686195
0.0128299 0.00152288 0.00570635
0.0108291 0.00365988 0.00596777
0.00197389 1.81752e-05 0.00579661
0 0.0013659 0.00748679
0.00179245 1.6167e-05 0.00751102
0.0128272 0.00700336 0.00566296
0.00750842 0.00857352 -0.000117115
0 0.0075208 0.00859127
0.00179088 0.0075018 0.00998379
0.00551 0.00826175 0.00356875
0.0110516 0.0101429 0.00743686
0.0128192 0.00877839 0.00743697
0.00748049 0.00164106 0.00996333
0.00937959 0.00426615 0.00995632
0 0.0057735 0.00666667
0.00179729 0.0100182 0.0075106
0 0.00863025 0.00752641
0.0110524 6.14842e-05 0.00236014
0.0128135 0.00709314 0.0024609
0.0108906 0.00645135 0.00201175
0.010966 0.00592782 0.00995214
0.00966814 0.00144213 0.00995554
0.0110669 6.18086e-05 0.00743821
0.0128302 0.00145221 0.00739812
0 0.00143551 0.00581971
0.00774415 4.73653e-05 0.00846047
0.00547849 3.59319e-05 0.00333937
0.0102325 0.00479841 0.00189088
0.0128171 0.00440617 0.00236667
0.00549743 0.0100635 0.00662013
0.00369546 0.010042 0.00279361
0.00171889 1.52793e-05 0.00240251
0 0.00727418 0.00419576
0.0128304 0.00589416 0.00656429
0.00899241 0.0101138 0.00296752
0.00968251 0.00874392 0.00995685
0 0.00574334 0.00336387
0 0.0043297 0.00416652
0.00888072 0.00586575 0.0099599
0.0128323 0.00311919 0.00681854
0.00549819 3.65064e-05 0.0066224
0.00323432 0.0100359 0.00858519
0.0096417 0.00143192 -0.000148872
0.00747985 0.00673776 0.00996445
0.0128246 0.00765813 0.00851626
0.0110845 0.0076712 0.0099524
0.00891961 0.00309018 -0.000136853
0.00436929 0.00578409 -5.93762e-05
0.00968364 0.00874149 -0.00015212
0.00966909 0.0101255 0.00124715
0.00747169 0.00694144 -0.000115445
0.00901537 0.00645981 0.00291906
0.00968565 5.67665e-05 0.00124818
0.00375793 0.00503241 0.00997526
0.00562792 0.00588234 0.0099697
0.00562666 0.00421414 0.00996849
0.00969135 0.0101206 0.00856233
0.00323004 2.4006e-05 0.00858476
0.0128219 0.00586196 0.00320501
0 0.00302218 0.00691532
0.0128329 0.00412174 0.00842573
0.0109271 0.00410786 -0.000174316
0.0128109 0.00280584 0.00135568
0 0.00244495 0.00857025
0.00318826 0.00860055 0.00997869
0.00970294 5.73404e-05 0.00856253
0.0109381 0.00270405 0.00995174
0.011396 0.00428804 0.00995019
0.00735054 0.0100885 0.00576956
0.00674094 0.00765052 0.00496626
0.00731101 0.010089 0.00413537
0.0090033 0.0101113 0.00686043
0.00393703 0.00694947 0.00997545
0.00540301 0.00437808 -7.76214e-05
0.00369892 2.79243e-05 0.00436914
0.00411247 2.99053e-05 0.00578775
0.0128067 0.00430309 0.000933295
0.00473131 0.00838537 0.00152859
0.0128264 0.00443931 0.00402412
0.00860244 0.00585441 -0.000133963
0.0110352 0.010146 0.00236042
0 0.00848692 0.00262374
0.00177247 0.0100175 0.00404252
0 0.00885053 0.00419359
0.00543129 0.00890882 -7.95518e-05
0.00545502 0.0100644 0.0016172
0.00649428 0.00484929 0.00229605
0.00930711 0.00460264 -0.000145077
0.00731592 4.56431e-05 0.0041349
0.00735576 4.58019e-05 0.00577033
0.00172054 0.0100175 0.00240162
0.0110138 0.00252592 -0.000175198
0.0128321 0.00463195 0.00712738
0.00918032 0.0101165 0.00490763
0.00744445 0.00342409 0.0099622
0.00320249 2.25454e-05 0.00132105
0.0128312 0.00253798 0.00849497
0.00313595 0.00482045 0.00496911
0.00753908 0.00439423 -0.000114886
0.0106931 0.00591293 -0.000169694
0.007103 0.0100837 0.00716573
0.0128308 0.00443949 0.0057175
0.0069964 0.0100847 0.00268865
0.00919473 5.34677e-05 0.00490791
0.00370171 0.0100413 0.00436689
0 0.00452174 0.00721958
0.00587151 0.0072762 0.00996956
0.0071084 4.46617e-05 0.00716911
0.00470609 0.00511687 0.00354848
0.00553122 0.0100659 0.00495347
0.00553191 3.5329e-05 0.00495536
0.00479573 0.00526017 0.00612902
0 0.005744 0.00499998
0 0.00433013 0.00583333
0.00647275 0.00580402 -9.7382e-05
0.00648172 0.00639989 0.00348006
0.00699956 4.41676e-05 0.00269005
0.0128284 0.00586128 0.00487053
0.0048214 0.00645177 0.0047957
0.00744556 0.00506477 0.00996288
0.0128097 0.00589521 0.00139984
0 0.00666667 0
0.0110305 0.00764037 -0.00017596
0.00432076 2.84929e-05 -5.61995e-05
0 0.01 0.00666667
0.0064752 0.0100778 0.00996469
0 0.00288419 0.00499914
0.0128021 0.00763318 0.00118331
0.0127934 0.00679829 -0.000203686
0 0.005 0.01
0.00646973 0.00293576 -9.51489e-05
0 0.005 0
0.0128129 6.38656e-05 0.00317598
0.0128039 0.0101744 0.00656545
0.00543838 0.00732761 -7.969e-05
0.0128292 0.00297882 0.00487026
0.00646172 3.81463e-05 -9.08951e-05
0 0 0.00666667
0.00496116 0.00366023 0.0051785
0.00647872 4.13606e-05 0.00996467
0.0128226 6.43994e-05 0.00656757
0 0 0.005
0.0112635 0.0101509 0.00105225
0.0127936 0.00893364 0.001028
0.0128194 6.41528e-05 0.0048728
0.0127949 0.00511524 -0.000205224
0.00159587 0.00123555 -1.66068e-05
0 0.00122008 0.00122008
0 0.00333333 0.01
0 0.00666667 0.01
0.0112588 0.00891497 -0.000179955
0.0127946 0.0101759 0.00317722
0.00547967 0.0100651 0.00333865
0.0128221 0.00679623 0.00994596
0 0.00333333 0
0 0.00122008 0.00877992
0.00159614 1.38842e-05 0.00876495
0.0015972 0.00123483 0.00998557
0.0112885 0.0101458 0.00871897
0.00160039 0.00879446 0.00998566
0 0.00877992 0.00877992
0.0128186 0.00893035 0.00870762
0.00858422 0.0101114 -0.000131363
0.0128076 0.00130294 0.00103068
0.00160006 0.0100166 0.00876472
0.0112947 0.00891142 0.00995165
0.0128258 0.00511446 0.00994561
0 0 0.00333333
0.00859419 4.7582e-05 -0.000127105
0.0112816 6.20841e-05 0.00105324
0.0015844 1.34945e-05 0.00119589
0 0.00877992 0.00122008
0.00159628 0.00879489 -1.66808e-05
0.0015855 0.0100166 0.00119513
0.01283 0.00130426 0.00870854
0.0113041 0.00129522 0.00995074
0.0086169 5.0508e-05 0.00995817
0.0112755 0.00129282 -0.000179098
0.0113034 6.34287e-05 0.00872016
0.0127966 0.00343424 -0.000205154
0.00433413 0.0100501 0.00997179
0.00320453 0.0100365 0.00131956
0.00860691 0.0101076 0.00995753
0.0128269 0.0034304 0.00994457
0 0.01 0.005
0.00341153 0.0085209 -4.41114e-05
0.0128008 0.0101759 0.00486756
0 0.01 0.00333333
0 0.00166667 0
0.012804 6.54906e-05 0.00148409
0 0.00166667 0.01
0 0.00833333 0
0.0127839 0.00848429 -0.000207074
0.0128235 6.66561e-05 0.00825685
0.0127851 0.0101751 0.00148203
0.0128057 0.0101721 0.00825543
0.00217889 0.0100252 0.00998144
0 0.01 0.00833333
0.0106908 0.0101452 -0.000166615
0.0107086 5.71879e-05 -0.000165327
0.0107358 6.10656e-05 0.0099514
0.0107228 0.0101387 0.00995116
0 0 0.00833333
0.0128166 0.00847824 0.00994552
0.0021721 1.53283e-05 -2.35457e-05
0 0 0.00166667
0.00432178 0.0100504 -5.95928e-05
0.0128263 0.00175568 0.00994453
0.0127967 0.00175394 -0.000204073
0.002175 1.70966e-05 0.00998253
0.00217301 0.0100242 -2.5289e-05
0 0.01 0.00166667
0.0128078 0.0101707 0.00994307
0 0 0.01
0.0127735 0.0101747 -0.000204528
0.0128248 6.84353e-05 0.00994379
0 0.01 0.01
0.0127946 6.44974e-05 -0.000201362
0 0.01 0
0 0 0
0.00645896 0.0100806 -9.63718e-05
0.00433056 3.18027e-05 0.00997371
0 0.00833333 0.01

CELLS 343 686
1 0
1 1
1 2
1 3
1 4
1 5
1 6
1 7
1 8
1 9
1 10
1 11
1 12
1 13
1 14
1 15
1 16
1 17
1 18
1 19
1 20
1 21
1 22
1 23
1 24
1 25
1 26
1 27
1 28
1 29
1 30
1 31
1 32
1 33
1 34
1 35
1 36
1 37
1 38
1 39
1 40
1 41
1 42
1 43
1 44
1 45
1 46
1 47
1 48
1 49
1 50
1 51
1 52
1 53
1 54
1 55
1 56
1 57
1 58
1 59
1 60
1 61
1 62
1 63
1 64
1 65
1 66
1 67
1 68
1 69
1 70
1 71
1 72
1 73
1 74
1 75
1 76
1 77
1 78
1 79
1 80
1 81
1 82
1 83
1 84
1 85
1 86
1 87
1 88
1 89
1 90
1 91
1 92
1 93
1 94
1 95
1 96
1 97
1 98
1 99
1 100
1 101
1 102
1 103
1 104
1 105
1 106
1 107
1 108
1 109
1 110
1 111
1 112
1 113
1 114
1 115
1 116
1 117
1 118
1 119
1 120
1 121
1 122
1 123
1 124
1 125
1 126
1 127
1 128
1 129
1 130
1 131
1 132
1 133
1 134
1 135
1 136
1 137
1 138
1 139
1 140
1 141
1 142
1 143
1 144
1 145
1 146
1 147
1 148
1 149
1 150
1 151
1 152
1 153
1 154
1 155
1 156
1 157
1 158
1 159
1 160
1 161
1 162
1 163
1 164
1 165
1 166
1 167
1 168
1 169
1 170
1 171
1 172
1 173
1 174
1 175
1 176
1 177
1 178
1 179
1 180
1 181
1 182
1 183
1 184
1 185
1 186
1 187
1 188
1 189
1 190
1 191
1 192
1 193
1 194
1 195
1 196
1 197
1 198
1 199
1 200
1 201
1 202
1 203
1 204
1 205
1 206
1 207
1 208
1 209
1 210
1 211
1 212
1 213
1 214
1 215
1 216
1 217
1 218
1 219
1 220
1 221
1 222
1 223
1 224
1 225
1 226
1 227
1 228
1 229
1 230
1 231
1 232
1 233
1 234
1 235
1 236
1 237
1 238
1 239
1 240
1 241
1 242
1 243
1 244
1 245
1 246
1 247
1 248
1 249
1 250
1 251
1 252
1 253
1 254
1 255
1 256
1 257
1 258
1 259
1 260
1 261
1 262
1 263
1 264
1 265
1 266
1 267
1 268
1 269
1 270
1 271
1 272
1 273
1 274
1 275
1 276
1 277
1 278
1 279
1 280
1 281
1 282
1 283
1 284
1 285
1 286
1 287
1 288
1 289
1 290
1 291
1 292
1 293
1 294
1 295
1 296
1 297
1 298
1 299
1 300
1 301
1 302
1 303
1 304
1 305
1 306
1 307
1 308
1 309
1 310
1 311
1 312
1 313
1 314
1 315
1 316
1 317
1 318
1 319
1 320
1 321
1 322
1 323
1 324
1 325
1 326
1 327
1 328
1 329
1 330
1 331
1 332
1 333
1 334
1 335
1 336
1 337
1 338
1 339
1 340
1 341
1 342

CELL_TYPES 343
1
1
1
1
1
1
1
1
1
1
1
1
1
1
1
1
1
1
1
1
1
1
1
1
1
1
1
1
1
1
1
1
1
1
1
1
1
1
1
1
1
1
1
1
1
1
1
1
1
1
1
1
1
1
1
1
1
1
1
1
1
1
1
1
1
1
1
1
1
1
1
1
1
1
1
1
1
1
1
1
1
1
1
1
1
1
1
1
1
1
1
1
1
1
1
1
1
1
1
1
1
1
1
1
1
1
1
1
1
1
1
1
1
1
1
1
1
1
1
1
1
1
1
1
1
1
1
1
1
1
1
1
1
1
1
1
1
1
1
1
1
1
1
1
1
1
1
1
1
1
1
1
1
1
1
1
1
1
1
1
1
1
1
1
1
1
1
1
1
1
1
1
1
1
1
1
1
1
1
1
1
1
1
1
1
1
1
1
1
1
1
1
1
1
1
1
1
1
1
1
1
1
1
1
1
1
1
1
1
1
1
1
1
1
1
1
1
1
1
1
1
1
1
1
1
1
1
1
1
1
1
1
1
1
1
1
1
1
1
1
1
1
1
1
1
1
1
1
1
1
1
1
1
1
1
1
1
1
1
1
1
1
1
1
1
1
1
1
1
1
1
1
1
1
1
1
1
1
1
1
1
1
1
1
1
1
1
1
1
1
1
1
1
1
1
1
1
1
1
1
1
1
1
1
1
1
1
1
1
1
1
1
1
1
1
1
1
1
1
1
1
1
1
1
1
1
1
1
1
1
1
1
1
1
1
1
1
1
1
1
1
1
1

POINT_DATA 343
FIELD FieldData 8

NodeID_(#) 1 343 int
0
1
2
3
4
5
6
7
8
9
10
11
12
13
14
15
16
17
18
19
20
21
22
23
24
25
26
27
28
29
30
31
32
33
34
35
36
37
38
39
40
41
42
43
44
45
46
47
48
49
50
51
52
53
54
55
56
57
58
59
60
61
62
63
64
65
66
67
68
69
70
71
72
73
74
75
76
77
78
79
80
81
82
83
84
85
86
87
88
89
90
91
92
93
94
95
96
97
98
99
100
101
102
103
104
105
106
107
108
109
110
111
112
113
114
115
116
117
118
119
120
121
122
123
124
125
126
127
128
129
130
131
132
133
134
135
136
137
138
139
140
141
142
143
144
145
146
147
148
149
150
151
152
153
154
155
156
157
158
159
160
161
162
163
164
165
166
167
168
169
170
171
172
173
174
175
176
177
178
179
180
181
182
183
184
185
186
187
188
189
190
191
192
193
194
195
196
197
198
199
200
201
202
203
204
205
206
207
208
209
210
211
212
213
214
215
216
217
218
219
220
221
222
223
224
225
226
227
228
229
230
231
232
233
234
235
236
237
238
239
240
241
242
243
244
245
246
247
248
249
250
251
252
253
254
255
256
257
258
259
260
261
262
263
264
265
266
267
268
269
270
271
272
273
274
275
276
277
278
279
280
281
282
283
284
285
286
287
288
289
290
291
292
293
294
295
296
297
298
299
300
301
302
303
304
305
306
307
308
309
310
311
312
313
314
315
316
317
318
319
320
321
322
323
324
325
326
327
328
329
330
331
332
333
334
335
336
337
338
339
340
341
342

Component_(#) 1 343 int
0
0
0
0
0
0
0
0
0
0
0
0
0
0
0
0
0
0
0
0
0
0
0
0
0
0
0
0
0
0
0
0
0
0
0
0
0
0
0
0
0
0
0
0
0
0
0
0
0
0
0
0
0
0
0
0
0
0
0
0
0
0
0
0
0
0
0
0
0
0
0
0
0
0
0
0
0
0
0
0
0
0
0
0
0
0
0
0
0
0
0
0
0
0
0
0
0
0
0
0
0
0
0
0
0
0
0
0
0
0
0
0
0
0
0
0
0
0
0
0
0
0
0
0
0
0
0
0
0
0
0
0
0
0
0
0
0
0
0
0
0
0
0
0
0
0
0
0
0
0
0
0
0
0
0
0
0
0
0
0
0
0
0
0
0
0
0
0
0
0
0
0
0
0
0
0
0
0
0
0
0
0
0
0
0
0
0
0
0
0
0
0
0
0
0
0
0
0
0
0
0
0
0
0
0
0
0
0
0
0
0
0
0
0
0
0
0
0
0
0
0
0
0
0
0
0
0
0
0
0
0
0
0
0
0
0
0
0
0
0
0
0
0
0
0
0
0
0
0
0
0
0
0
0
0
0
0
0
0
0
0
0
0
0
0
0
0
0
0
0
0
0
0
0
0
0
0
0
0
0
0
0
0
0
0
0
0
0
0
0
0
0
0
0
0
0
0
0
0
0
0
0
0
0
0
0
0
0
0
0
0
0
0
0
0
0
0
0
0
0
0
0
0
0
0
0
0
0
0
0
0
0
0
0
0
0
0
0
0
0
0
0
0

NodalMass_(kg) 1 343 double
3.15563e-06
1.41304e-05
2.20912e-06
1.71484e-05
8.42e-06
9.09306e-06
9.93033e-06
7.52198e-06
6.81096e-06
5.58223e-06
3.10888e-06
1.07575e-05
4.87011e-06
1.64955e-05
3.0246e-06
8.05984e-06
6.703e-06
1.0877e-05
4.18978e-06
8.16106e-06
6.14143e-06
1.17902e-05
2.23114e-06
4.25176e-06
1.09915e-05
7.41467e-06
4.21871e-06
3.92484e-06
3.08766e-06
1.31268e-05
7.72627e-06
1.65404e-05
1.19037e-05
7.29666e-06
3.81683e-06
1.11001e-05
3.81317e-06
1.39137e-05
6.37414e-06
8.00975e-06
7.6712e-06
1.18847e-05
1.6399e-05
2.78633e-06
8.93599e-06
2.58087e-06
7.57362e-06
4.23241e-06
1.31286e-05
3.80168e-06
2.7746e-06
7.16776e-06
1.21307e-05
5.11765e-06
8.19728e-06
4.58094e-06
2.79503e-06
3.26126e-06
4.12443e-06
2.11915e-06
3.35177e-06
3.61669e-06
1.56838e-05
7.33679e-06
8.24695e-06
5.00369e-06
2.82625e-06
7.20276e-06
3.26815e-06
4.18751e-06
2.02785e-06
2.42152e-06
3.11835e-06
5.97459e-06
5.87101e-06
4.09374e-06
5.45463e-06
2.28825e-06
4.49759e-06
4.38192e-06
4.50892e-06
4.39234e-06
4.27273e-06
5.32031e-06
1.53201e-06
2.38869e-06
2.02885e-06
4.38798e-06
3.17972e-06
3.14298e-06
4.61567e-06
5.87645e-06
8.18088e-06
2.48341e-06
1.53815e-05
3.49683e-06
7.35227e-06
2.01314e-06
2.0408e-06
7.98183e-06
4.41293e-06
7.1389e-06
1.20123e-06
5.03343e-06
1.61257e-06
4.12601e-06
8.73748e-06
4.37849e-06
7.97173e-06
2.13557e-06
3.38137e-06
9.48623e-06
7.40262e-06
1.80226e-06
2.10222e-06
7.98889e-06
1.87983e-06
7.44814e-06
4.19782e-06
2.37156e-06
4.31705e-06
6.06441e-06
4.30905e-06
2.16843e-06
1.8986e-06
1.81294e-06
3.89762e-06
2.44299e-06
1.65628e-06
8.01374e-06
1.64513e-06
2.3931e-06
3.01363e-06
2.99431e-06
1.36541e-06
1.87293e-06
2.09622e-06
1.94762e-06
1.87618e-06
6.37913e-06
4.58628e-06
2.02767e-06
1.61999e-06
2.41284e-06
3.8865e-06
4.44973e-06
2.29839e-06
1.17349e-05
3.11811e-06
1.354e-06
3.45063e-06
1.81846e-06
2.9382e-06
1.37381e-06
2.41464e-06
2.10451e-06
2.63927e-06
2.14166e-06
1.7943e-06
3.19976e-06
1.36989e-06
2.43489e-06
2.08158e-06
1.3601e-06
2.17203e-06
1.89924e-06
3.16996e-06
2.6119e-06
2.37677e-06
1.60225e-06
1.90684e-06
5.49206e-06
1.87878e-06
3.14313e-06
2.97301e-06
1.18454e-06
1.89263e-06
2.04166e-06
2.73572e-06
2.42405e-06
3.23083e-06
3.19752e-06
3.2142e-06
1.94492e-06
1.61196e-06
1.86876e-06
3.22435e-06
2.1114e-06
2.96917e-06
6.15288e-06
2.3097e-06
2.39729e-06
2.38029e-06
2.64508e-06
1.66557e-06
1.82377e-06
2.06583e-06
5.73271e-06
2.08467e-06
2.18324e-06
2.43522e-06
3.1188e-06
3.17316e-06
2.05447e-06
1.9592e-06
3.05718e-06
6.44327e-06
2.08796e-06
2.72615e-06
2.15709e-06
1.86812e-06
2.0028e-06
2.10999e-06
2.88994e-06
2.3222e-06
2.3979e-06
1.97629e-06
6.4127e-06
2.16225e-06
3.29198e-06
2.10223e-06
2.66566e-06
1.94415e-06
2.91865e-06
2.58116e-06
2.11703e-06
2.09534e-06
1.91719e-06
7.06046e-06
2.25203e-06
2.06378e-06
6.28159e-06
2.12147e-06
2.90924e-06
2.12921e-06
6.4487e-06
1.41701e-06
2.0682e-06
6.58062e-06
2.52584e-06
2.39732e-06
7.42191e-07
2.22368e-06
7.06751e-07
7.00657e-07
8.93749e-07
2.53536e-06
2.26535e-06
1.33607e-06
7.84725e-07
2.32303e-06
6.06694e-07
6.68276e-07
6.84307e-07
2.51242e-06
2.31629e-06
7.8367e-07
6.80839e-07
6.22692e-06
6.7471e-07
6.65305e-07
7.01158e-07
1.8232e-06
1.90695e-06
6.86722e-07
7.04792e-07
1.86445e-06
2.28572e-06
6.8045e-07
7.16005e-07
1.82373e-06
6.01079e-07
2.02791e-06
7.4579e-07
5.74423e-07
1.80052e-06
1.454e-06
2.2702e-06
1.80636e-06
2.15356e-06
1.79089e-06
1.79456e-06
6.8231e-07
2.24737e-06
1.45239e-06
1.79556e-06
6.97875e-07
6.24265e-07
6.62717e-07
1.44627e-06
1.40138e-06
2.15258e-06
1.82851e-06
1.3994e-06
1.43932e-06
2.19226e-06
6.97732e-07
1.77726e-06
1.79162e-06
6.54258e-07
7.3397e-07
2.34895e-06
7.10392e-07
6.56982e-07
6.26314e-07
2.18926e-06
6.12493e-07
6.03901e-07
5.92831e-07
5.12031e-07
5.11667e-07
4.9467e-07
4.97016e-07
4.96269e-07
5.33079e-07
4.94191e-07
4.97855e-07
4.86862e-07
4.90626e-07
4.94649e-07
4.94954e-07
4.91922e-07
4.89615e-07
4.96354e-07
4.95189e-07
4.82188e-07
1.10854e-06
5.3299e-07
5.44763e-07
5.36655e-07
5.15417e-07
5.01772e-07
5.53774e-07
5.53774e-07
5.53774e-07
5.53774e-07
5.53774e-07
5.53774e-07
5.50785e-07
5.50785e-07
7.45291e-07
7.11668e-07
4.9897e-07

NodalForce_(N) 3 343 double
-4.2576e-06 -5.28063e-07 2.23569e-07
-4.10737e-05 -2.96557e-06 2.60315e-06
-0.000102164 -0.000263622 -0.000420352
-4.28335e-05 -5.87911e-06 5.99986e-06
-9.0651e-05 -6.51499e-06 1.61817e-05
-0.000107646 5.40765e-07 3.08074e-05
-0.000195057 1.16134e-05 5.46563e-05
-9.91244e-05 1.04558e-05 1.97609e-05
-0.000123613 -3.68292e-06 4.13972e-05
-5.71954e-05 4.99762e-06 1.27645e-05
-4.08428e-05 3.06284e-06 1.79738e-05
-0.000149277 -1.13812e-07 6.3877e-05
-5.5612e-05 -1.82842e-06 2.68787e-05
-6.81566e-05 6.53972e-06 1.72744e-05
-3.95992e-05 3.2726e-06 1.59694e-05
-0.000156136 1.73491e-05 5.19726e-05
-0.000104957 1.34996e-05 3.08883e-05
-3.8955e-05 -1.65547e-06 9.57115e-06
0.000792654 -0.000423008 -0.000681753
-1.83361e-05 -9.31894e-07 2.97566e-06
-9.11239e-05 5.61123e-07 1.43018e-05
-0.000236397 -1.69779e-05 5.1095e-05
0.000928385 0.000477453 0.00123599
-2.86233e-05 -6.93514e-06 4.20047e-06
-9.89055e-05 -1.13568e-05 1.12129e-05
-4.45372e-05 2.23756e-07 5.66832e-06
-9.38784e-06 -1.48241e-06 2.61657e-06
-3.22043e-05 -9.4238e-06 4.00736e-06
-1.10609e-05 -3.52703e-07 1.19704e-07
-3.97693e-05 -2.82348e-06 -1.06292e-06
-5.18697e-05 6.00987e-06 6.12322e-06
-0.000421424 7.80608e-05 0.000129906
-0.000283855 9.55177e-06 0.00010397
-0.000179622 1.89058e-05 5.73411e-05
-0.000124787 2.07041e-05 4.00559e-05
-0.000231061 3.86244e-05 7.50882e-05
-9.96076e-05 1.77689e-05 2.94069e-05
-0.000275623 5.25577e-05 6.90471e-05
-4.68263e-05 1.89039e-06 1.26876e-05
-9.12302e-05 5.92508e-06 3.54359e-05
-5.98873e-05 -3.77606e-06 1.5903e-05
-0.000161557 2.50038e-05 4.30505e-05
-7.24175e-05 8.135e-06 2.34328e-06
-2.02996e-05 2.91391e-06 1.4673e-07
-8.01847e-05 1.04368e-05 1.10926e-05
4.67531e-05 -0.000640791 -0.000366636
-1.99126e-05 2.00026e-07 -2.46538e-07
0.000687371 -6.77749e-05 -0.000484096
-6.12588e-05 1.07113e-05 7.67329e-06
-1.35409e-05 3.1795e-06 1.17869e-06
-6.4744e-05 1.16026e-05 2.0688e-05
-0.000124226 1.35801e-05 4.30159e-05
-4.50303e-05 6.04087e-07 -2.76117e-06
-3.133e-05 3.49582e-06 3.66761e-06
-2.38901e-05 2.56941e-06 1.59926e-06
-0.000160489 1.09691e-05 5.11097e-05
0.00146673 0.000236866 0.000289387
-6.61966e-06 -9.76606e-07 1.64436e-07
0.00102357 -0.000444585 0.001137
-7.33619e-05 8.98098e-06 2.29755e-05
-2.9491e-05 4.11041e-06 8.59417e-06
-0.000111052 -1.16385e-05 2.40748e-05
-0.000285174 -3.08327e-05 4.96594e-05
-0.000161053 3.93321e-06 3.63872e-05
-5.61953e-05 -7.69909e-06 8.41641e-06
-1.56386e-05 -1.83154e-07 -1.85609e-06
-1.75626e-05 -5.90742e-07 5.68916e-06
-0.000122219 3.21789e-06 4.74482e-05
-0.000103433 1.66706e-05 3.35251e-05
-9.81756e-05 -1.92136e-05 1.95867e-05
-8.89451e-06 -9.17034e-07 1.18849e-06
-2.10074e-05 2.06227e-06 6.7853e-06
-1.72207e-05 -4.87454e-06 2.71236e-06
-7.01336e-05 4.92053e-06 2.29305e-05
-2.85547e-05 -9.04268e-07 4.10861e-06
0.00273799 -0.000386037 -0.000353892
-4.94829e-05 1.25838e-06 7.48002e-06
-3.88403e-06 -6.82304e-07 4.75137e-07
-8.46521e-05 1.77928e-05 2.25922e-05
-8.60266e-05 1.57351e-05 1.74348e-05
-5.75108e-05 9.55776e-06 9.25157e-06
-5.52094e-05 1.00087e-05 1.16886e-05
-0.000145791 2.44106e-05 4.62538e-05
-2.79997e-05 1.6829e-06 2.71676e-06
0.000458922 -0.000891004 -0.000529696
-4.8645e-06 -6.93223e-07 -3.15488e-08
0.000231337 -0.000294899 0.000599801
-0.00191969 0.000414383 0.000773502
0.000800915 -0.000693458 8.73532e-05
-9.55099e-06 -1.00908e-06 7.2616e-07
-1.66559e-05 3.66806e-06 6.63544e-07
-7.32408e-05 8.93294e-06 2.07093e-05
-7.34251e-05 9.13692e-06 1.88361e-05
-5.47132e-05 1.64518e-06 2.39378e-05
-0.000366504 -1.19655e-05 0.000158037
-5.73518e-05 -1.32909e-05 7.85178e-06
-9.37298e-05 -1.22961e-05 1.08526e-05
-6.01538e-05 -1.17558e-06 1.32351e-05
0.000559619 -0.000166219 -0.000590589
-0.000142405 2.28276e-05 4.24959e-05
-4.53963e-05 -1.12506e-05 7.08241e-06
-8.01824e-05 2.88614e-06 1.16152e-05
-8.99912e-06 8.86415e-07 2.9971e-07
-0.000141168 2.64815e-05 4.13477e-05
-5.59921e-06 -1.32216e-06 7.1874e-07
-5.09188e-05 -1.52218e-05 7.59589e-06
-0.000131135 2.06905e-05 3.24872e-05
-0.000108048 -1.65004e-05 3.23196e-05
-0.000123292 -7.74001e-06 3.89468e-05
-7.61128e-06 1.21405e-06 9.40852e-07
-5.07384e-05 1.19491e-05 9.76013e-06
-9.59325e-05 1.34633e-05 1.66738e-05
-8.46382e-05 1.8887e-05 1.53565e-05
0.00035701 -0.00041866 0.000546221
-6.13031e-05 -7.5949e-06 1.27569e-05
-2.45954e-05 1.58281e-06 3.99792e-06
-5.77402e-05 9.52384e-06 1.68583e-05
-0.00017035 2.64993e-05 5.2216e-05
-5.72401e-05 5.49976e-06 7.03651e-06
-4.60483e-05 -5.15603e-06 1.84435e-05
-0.000139677 -1.13281e-05 3.74685e-05
-0.000145706 -3.51197e-06 4.21367e-05
-1.15241e-05 -5.21985e-07 3.52679e-06
9.71207e-05 -8.34179e-05 -0.0005958
-4.91861e-06 -2.25952e-07 9.66789e-07
-5.99497e-05 7.64373e-06 1.90416e-05
-4.46067e-05 4.13195e-06 5.10466e-06
0.00142106 -0.00202468 -0.000546566
-5.52101e-06 4.72309e-07 4.03061e-07
-6.60341e-05 8.35543e-06 8.04544e-06
-4.9207e-05 1.06339e-05 1.24455e-05
-8.59165e-05 1.61788e-05 2.48009e-05
-5.47551e-05 3.87043e-06 2.56026e-05
-6.89084e-05 4.27232e-06 2.77529e-05
0.00219805 -0.000540669 -0.0014005
-6.09497e-06 3.57248e-07 -5.27285e-07
0.00203896 -0.000750309 -0.000348643
-4.30243e-05 -1.03158e-05 8.69573e-06
-5.5937e-05 1.02079e-05 1.59898e-05
-0.000134378 2.96002e-05 3.32346e-05
-0.000130017 1.38522e-05 4.60173e-05
-4.96869e-05 3.01157e-06 2.43981e-05
-4.26624e-05 -3.85838e-06 1.88074e-05
-8.18818e-05 -4.47675e-06 2.98703e-05
-0.000558235 -0.000500455 0.00148074
-7.65754e-05 -3.19208e-06 4.07929e-05
-1.97901e-05 -5.03009e-06 2.38793e-06
-0.000211308 3.32641e-05 4.31027e-05
-9.10015e-05 7.52346e-06 2.15192e-05
-1.54608e-05 2.38829e-06 2.03918e-06
-1.91459e-05 -7.7667e-08 9.19601e-08
-3.92677e-06 -7.19652e-07 5.55602e-07
0.000936786 -0.00166986 -0.000543237
-4.62369e-05 3.04513e-06 1.42344e-05
-4.46984e-05 6.48597e-06 9.35764e-06
-5.39625e-05 1.29293e-05 1.41569e-05
0.000535258 -0.000249211 0.000478218
0.0017914 -0.0020429 -0.00331773
-3.89179e-05 4.4042e-06 1.38173e-05
-0.000106343 -3.74094e-06 3.31747e-05
-1.3634e-05 -1.33982e-06 5.20055e-06
-1.75974e-05 2.5398e-06 1.1946e-06
-3.11177e-05 -6.96273e-06 7.0995e-06
-2.42287e-05 3.85038e-06 7.78327e-06
-7.84368e-05 1.13635e-05 2.24157e-05
-5.61357e-05 1.14016e-05 1.66805e-05
-4.06063e-05 -1.19335e-06 8.14419e-06
-1.19039e-05 2.31122e-07 1.08023e-06
-4.06724e-05 5.20814e-06 7.30987e-06
-3.05472e-05 4.1053e-06 5.24508e-06
-2.0038e-05 4.42032e-06 3.16621e-06
-8.81264e-05 1.72719e-05 2.12749e-05
-3.19244e-05 -9.11784e-06 6.4283e-06
-2.6746e-05 4.22391e-06 6.86382e-06
-3.75143e-05 4.92872e-06 1.21093e-05
-1.50759e-05 1.61674e-06 5.53615e-06
-4.95604e-05 1.10089e-05 1.06078e-05
-1.28537e-05 -3.00097e-07 4.66326e-06
-8.27658e-05 1.01304e-05 2.32947e-05
0.000437471 -0.000115668 -0.000749706
-0.000112221 9.29392e-07 4.00073e-05
-5.93556e-05 5.66765e-06 1.33546e-05
-8.98229e-05 -1.6389e-06 2.03348e-05
0.00101537 -0.000905691 -0.000311824
-1.16752e-05 1.63806e-06 1.84169e-06
-4.31963e-05 -1.85054e-06 2.31401e-05
-9.10658e-05 2.31258e-06 4.04254e-05
-6.31821e-05 3.4934e-06 2.48673e-05
-4.68825e-05 7.01726e-06 1.06172e-05
-7.34454e-05 1.05661e-05 1.72702e-05
-3.2719e-05 4.60534e-06 6.25128e-06
-5.35598e-05 9.58501e-06 1.37952e-05
-2.07958e-05 3.06182e-06 4.39822e-06
-1.50706e-05 7.80193e-07 2.13331e-06
-9.3729e-06 -1.65658e-06 2.11705e-06
-1.19327e-05 -1.49993e-06 3.82072e-06
-5.74249e-05 4.85662e-06 1.35545e-05
-3.63995e-05 2.67324e-06 3.45147e-06
-6.40286e-05 3.48952e-06 1.69978e-05
-2.77599e-05 6.57922e-06 5.249e-06
-5.95105e-05 9.68733e-06 1.42814e-05
0.00112884 -7.09403e-05 0.000275003
-7.74991e-06 -5.79169e-07 -7.94461e-07
0.00141076 0.000269662 9.10149e-05
-1.4072e-05 4.83805e-07 8.02267e-07
-2.43215e-05 9.10569e-07 1.83271e-06
-5.54292e-05 6.2482e-06 8.23048e-06
-2.9191e-05 4.46362e-06 5.73935e-06
-3.45226e-05 -7.05214e-06 5.54337e-06
-2.98348e-05 -4.2988e-06 9.29103e-06
-3.77345e-06 -3.86544e-07 -3.36608e-07
-3.70363e-05 -3.00184e-06 8.90454e-06
-7.13572e-05 1.07905e-06 2.24172e-05
-6.09064e-05 1.00836e-05 1.63994e-05
-4.06004e-05 2.22964e-06 1.68892e-05
-1.08893e-05 -3.19057e-06 8.9835e-07
-6.8775e-05 -1.05156e-06 2.66648e-05
-2.54204e-05 1.78785e-06 3.63209e-06
-2.13263e-05 2.19557e-06 3.62935e-06
-6.03298e-05 1.53646e-05 1.38914e-05
-3.45811e-05 5.65785e-06 7.14386e-06
-8.65178e-05 1.63701e-06 2.48832e-05
-2.38217e-05 2.57801e-06 3.47712e-06
-5.39193e-05 -9.72732e-06 1.2475e-05
-1.55429e-05 7.47289e-07 -8.78344e-07
-0.000344928 -0.000899216 -0.000942102
-2.86681e-05 5.07794e-06 7.91917e-06
-2.73654e-05 -2.30717e-06 1.18125e-05
-4.15991e-05 3.01051e-06 5.46048e-06
-2.26322e-05 2.8589e-06 2.53905e-06
-1.87754e-05 -3.6135e-06 4.37196e-06
-4.45656e-05 4.45489e-06 9.01382e-06
0.00230449 0.0029037 -0.000692146
0.00113155 -0.00165647 0.00280884
-1.6779e-05 3.07047e-06 2.64426e-06
-6.25493e-05 8.71595e-06 1.1216e-05
-1.62792e-05 -4.26135e-06 2.0212e-06
-6.59922e-05 5.6265e-06 2.01171e-05
-4.47235e-05 4.79805e-06 5.88847e-06
-4.35805e-05 4.11499e-06 1.62933e-05
-6.82244e-05 1.08149e-05 1.66818e-05
-0.0017965 0.000954415 -0.00144719
-4.56352e-05 1.00554e-05 1.00338e-05
-4.13391e-06 -1.87736e-06 9.3458e-07
-0.00122281 0.00114981 -0.000759115
-1.51988e-05 3.27321e-06 2.74073e-06
0.00159005 0.00145985 -0.000236038
-6.5201e-05 1.30092e-05 1.65704e-05
-3.63119e-05 7.33561e-06 8.847e-06
-0.000742333 -0.000692935 0.000723755
-1.82289e-05 -1.45329e-06 2.89363e-06
-0.00119798 -0.000686124 -0.00122809
-2.05328e-05 -4.17579e-06 4.30608e-06
-2.51056e-05 4.93894e-06 6.81151e-06
-1.70385e-05 1.81463e-06 1.58496e-06
-7.27488e-05 -2.91858e-06 1.78534e-05
-7.31972e-06 -3.05948e-06 1.55327e-06
-0.00106476 -0.000833882 0.000570246
-4.24546e-05 7.50632e-07 7.88872e-06
-1.07838e-05 5.04683e-07 5.67327e-06
-2.25122e-05 -2.88656e-06 7.59335e-06
-0.000861577 -0.000905282 0.000274943
-4.41239e-05 6.56467e-06 8.62978e-06
-5.62367e-05 8.62133e-06 1.32017e-05
-2.22521e-05 -3.81645e-06 5.41783e-06
-1.89768e-05 2.61291e-06 4.60651e-06
-2.64279e-06 -3.42148e-07 3.29861e-07
0.00300726 0.000258605 0.000684919
-0.00073135 -0.00031327 0.000773044
-0.00117157 -0.00159243 0.00112267
-4.07484e-05 5.91871e-06 8.14145e-06
-1.98742e-05 3.35425e-06 5.58813e-06
-1.77642e-05 1.55258e-06 1.33093e-06
-2.77054e-05 3.55866e-06 8.68624e-06
-0.00137185 0.00186437 -0.00109956
0.00126447 0.000603203 0.000391531
-3.7596e-06 -1.03539e-07 1.14565e-06
-7.07582e-06 8.8763e-07 1.11573e-06
-5.78299e-05 1.38544e-05 1.2578e-05
-6.4488e-06 5.87754e-07 3.71673e-07
0.00338589 -0.000877511 0.000205873
-6.66355e-05 1.44305e-05 1.67866e-05
-1.01996e-05 1.03975e-06 1.36327e-06
-6.23155e-05 -1.0693e-05 1.50614e-05
-4.65851e-06 3.62131e-07 4.12878e-08
-5.66777e-05 1.4188e-05 1.45431e-05
-2.54766e-05 1.77613e-06 9.02433e-06