# vtk DataFile Version 4.2
vtk output
ASCII
DATASET UNSTRUCTURED_GRID

POINTS 343 double
0.00112259 0.0041949 8.70422e-08
0.00217127 0.00498247 0.00217537
0 0.00419538 0.00112517
0.00193013 0.00195442 0.00194217
0.00516945 0.00240655 0.00503231
0.00517222 0.00382973 0.00639759
0.00762289 0.00477477 0.00499903
0.00622492 0.00484995 0.00369189
0.00683623 0.00328806 0.00691402
0.00499128 0.00499224 0.00499988
0.00418011 0.00111791 0.00999911
0.0052808 0.00207992 0.00790409
0.00418998 -7.64407e-06 0.00831718
0.00201233 0.00200245 0.00803326
0.004286 0.00253266 0.00999915
0.00695692 0.00644622 0.00694695
0.00641413 0.00618193 0.00518313
0.00226059 0.00218458 0.00514613
0 0.00143586 0.00417514
0.00159464 0.00346613 0.00403704
0.00683734 0.00319339 0.00316161
0.00774542 0.00221234 0.00506402
0 0.00270918 0.00154168
0.00415836 0.00142829 2.49752e-07
0.0050079 0.00218751 0.00219811
0.00396269 0.00352651 0.0016032
0.00134535 -6.07136e-07 0.00406003
0.00418331 -7.9944e-06 0.00168837
0.0026266 0.00695157 1.69049e-07
0.00193854 0.00805271 0.00194493
0.00408808 0.00624788 0.0016452
0.00800349 0.00798516 0.0079972
0.007965 0.00481481 0.00802223
0.00838872 0.0060787 0.00594791
0.00999984 0.00882426 0.00419184
0.00757756 0.00763492 0.0049637
0.00856792 0.00997906 0.00416646
0.00797737 0.00797027 0.002016
0.00353604 0.00303639 0.00695954
0.0044374 0.00366167 0.00832401
0.00389228 0.00160034 0.00596907
0.00500594 0.00766795 0.00767667
0.00198981 0.00800784 0.00798964
0.0028279 0.0099972 0.00712716
0.00391709 0.0083993 0.00595784
0 0.00695361 0.00262895
0.00164663 0.00623923 0.0040879
0 0.0040177 0.00850214
0.00231514 0.00498566 0.00766151
0.00143333 0.00417445 0.00999994
0.0071753 0.00711739 0.00999771
0.00611845 0.00597024 0.00841728
0.00205211 0.00794139 0.00474186
0.00304399 0.00694279 0.00646773
0.00158703 0.00607833 0.00592602
0.00998939 0.00578243 0.00831442
0 0.00718191 0.00711644
0.00158474 0.00577341 5.1758e-08
0 0.00577432 0.00158701
0.0099944 0.00715614 0.00711389
0.00286744 0.0033492 0.00999968
0.0099701 0.00140775 0.00417397
0.00803635 0.00194203 0.00197899
0.0083895 0.00350115 0.00399818
0.00372578 0.00164784 0.00412839
0.00150957 0.00999968 0.00581502
0.00280947 -3.67504e-06 0.00712773
0.00610987 0.00417095 0.00837576
0.0099935 0.00724819 0.00419416
0.00852835 -2.30546e-05 0.00416735
0.00334183 0.00286954 1.77772e-07
0.00270016 0.00153876 0.00999971
0.00281835 -4.05954e-06 0.00283207
0.00479808 0.00519378 0.00755418
0.00315829 0.00314616 0.00316741
0 0.00849157 0.00581511
0.00486495 0.00366921 0.00378625
0.00153712 0.00270865 4.11063e-08
0.00580024 0.00831548 0.00999821
0.0059856 0.00998882 0.00850478
0.00421464 0.00999384 0.00831725
0.00401824 0.00849808 0.00999887
0.00999908 0.00846557 0.00581288
0.00314776 0.00683343 0.00315092
0 0.00748929 0.00137438
0.00137358 0.00748898 1.8575e-08
0 0.00287343 0.00335182
0 0.00580816 0.00831736
0 0.00429792 0.00253898
0.00253374 0.00429584 1.82183e-07
0.00143396 0.00581916 0.00999995
0.00517577 0.00646824 0.00640003
0.00360358 0.00650923 0.00823378
0.00693242 0.00261238 0.00999803
0.0079995 0.00193892 0.0080339
0.00694183 -1.71371e-05 0.00308187
0.00600077 0.00165197 0.00361276
0.00997545 0.00284618 0.00335086
0 0.00140616 0.00256446
0.00637395 0.00821616 0.00642021
0.00579666 0.00142284 4.55304e-07
0.00602226 0.00354051 0.00160328
0.00315761 0.00999636 0.00582514
0.00856325 0.00997925 0.00583156
0.00255404 0.00140292 1.97519e-07
0.00594994 -1.36184e-05 0.00149463
0.00628098 0.00827619 0.00361692
0.00852379 -2.2873e-05 0.00583213
0.00618666 0.00166006 0.00636466
0.00140232 0.00256405 0.01
0.00711173 0.00716711 -1.47267e-07
0.00516571 0.00768191 0.00216884
0.00593676 0.00608336 0.00160183
0 0.00686719 0.00578184
0.0099693 0.00137784 0.00256382
0.00177231 0.00360986 0.00640787
0.0099978 0.00846058 0.00262246
0.00840382 0.00616964 0.00413185
0.00598375 0.00998814 0.00149359
0.00694186 -1.68507e-05 0.00692551
0.00997083 0.00140756 0.00581788
0.00837956 0.0035531 0.00605955
0.00150186 -7.77617e-07 0.0058152
0 0.0013659 0.00748679
0.0013637 -6.5488e-07 0.00752891
0.00999253 0.00684135 0.0057797
0.00581585 0.00848076 -5.49574e-08
0 0.0075208 0.00859127
0.00136526 0.00748642 0.00999988
0.0042315 0.00820007 0.0036282
0.00859679 0.00997912 0.00750997
0.0100005 0.00860438 0.00752356
0.00575516 0.0015752 0.00999846
0.0072458 0.00417289 0.00999785
0 0.0057735 0.00666667
0.0013705 0.00999961 0.00752892
0 0.00863025 0.00752641
0.00855433 -2.34841e-05 0.0025072
0.00999157 0.00692745 0.00262781
0.00845083 0.00632212 0.00216233
0.00850067 0.00580418 0.00999727
0.00746574 0.00135625 0.00999771
0.00855721 -2.30956e-05 0.00751012
0.00997123 0.00133803 0.00748429
0 0.00143551 0.00581971
0.00595217 -1.31576e-05 0.00850469
0.00419316 -8.04372e-06 0.00340004
0.00792034 0.00468949 0.00203414
0.00998079 0.00427129 0.00253809
0.00423221 0.0099936 0.00666609
0.00283706 0.00999725 0.00283193
0.00130702 -6.62506e-07 0.00241833
0 0.00727418 0.00419576
0.00998847 0.00574768 0.00666427
0.00697829 0.00998481 0.00308098
0.00750921 0.00862077 0.00999755
0 0.00574334 0.00336387
0 0.0043297 0.00416652
0.00686246 0.00577095 0.00999801
0.00997755 0.00299532 0.00691295
0.004206 -7.83731e-06 0.00666644
0.0024808 0.00999761 0.00861134
0.00745943 0.00134716 2.92946e-07
0.00577086 0.00665724 0.00999826
0.00999645 0.00749514 0.00858813
0.00860621 0.00753359 0.00999715
0.00689506 0.00300685 3.70138e-07
0.00335915 0.00574033 2.79995e-07
0.00752652 0.00861342 -3.50293e-07
0.00751998 0.00998252 0.00138677
0.00577732 0.00685718 2.17091e-08
0.00696847 0.00635691 0.00303297
0.00748234 -1.95443e-05 0.00138787
0.00288055 0.00499706 0.00999958
0.00432573 0.00582846 0.00999892
0.00432155 0.00416132 0.009999
0.00752257 0.00998312 0.00861392
0.00246488 -3.10621e-06 0.00861153
0.00998688 0.00571721 0.00336268
0 0.00302218 0.00691532
0.00998218 0.00399149 0.00849922
0.00848285 0.00399664 8.30921e-09
0.00997408 0.00268157 0.00154122
0 0.00244495 0.00857025
0.00244626 0.00856812 0.00999947
0.00748508 -1.90464e-05 0.0086138
0.0084662 0.00260291 0.00999729
0.00883586 0.0041723 0.00999712
0.00567614 0.00998947 0.00583256
0.00518535 0.00757555 0.00503196
0.005648 0.00998941 0.00421471
0.00697822 0.00998516 0.00692516
0.00302092 0.00691326 0.00999934
0.00415736 0.00432446 3.86051e-07
0.00282137 -4.19864e-06 0.00440479
0.00313759 -4.68638e-06 0.00582556
0.00997985 0.00416847 0.00112466
0.00363836 0.00833305 0.00158831
0.0099816 0.00430322 0.00416518
0.0066571 0.00576038 1.77664e-07
0.00859406 0.00997871 0.00250609
0 0.00848692 0.00262374
0.00135228 0.00999965 0.00405988
0 0.00885053 0.00419359
0.00419537 0.00884413 1.148e-07
0.00420922 0.0099934 0.00168767
0.00499006 0.00478419 0.00237891
0.0072044 0.004506 2.26783e-07
0.00561614 -1.24992e-05 0.00421552
0.00564434 -1.2433e-05 0.005833
0.00131378 0.00999967 0.00241807
0.00854465 0.00242282 1.09313e-07
0.00998367 0.00449561 0.00721704
0.00712095 0.00998451 0.00499917
0.00573014 0.00335384 0.00999849
0.00244561 -3.28418e-06 0.00135677
0.00997592 0.00241775 0.0085674
0.00239186 0.00478973 0.00499994
0.00582 0.00431952 4.06226e-07
0.00830553 0.00578843 -2.07256e-07
0.0054853 0.00999024 0.00721953
0.00998228 0.00430381 0.00583135
0.00540791 0.00999002 0.00277524
0.00708413 -1.7452e-05 0.00499988
0.00283954 0.00999725 0.00440435
0 0.00452174 0.00721958
0.00452047 0.00721434 0.00999877
0.00545409 -1.16231e-05 0.0072195
0.00359815 0.00507036 0.00359655
0.00425688 0.00999354 0.00500787
0.00422996 -8.01841e-06 0.00500853
0.00366637 0.00521333 0.00617445
0 0.005744 0.00499998
0 0.00433013 0.00583333
0.00499283 0.0057369 3.46876e-07
0.0049806 0.00633211 0.00355369
0.0053766 -1.18117e-05 0.00277616
0.0099876 0.00571806 0.0049982
0.00368809 0.00640427 0.00484383
0.00573609 0.00499092 0.00999842
0.00998633 0.00574797 0.00158626
0 0.00666667 0
0.00858592 0.00750016 -5.19171e-07
0.00331628 -6.20658e-06 8.40255e-07
0 0.01 0.00666667
0.0050069 0.00999138 0.00999876
0 0.00288419 0.00499914
0.00999327 0.007463 0.00137352
0.00998948 0.00664028 -7.63279e-07
0 0.005 0.01
0.00498332 0.00287553 3.5768e-07
0 0.005 0
0.009964 -2.90338e-05 0.0033326
0.0100056 0.0099734 0.006664
0.0041935 0.00726883 1.88874e-07
0.00997611 0.00285716 0.00499757
0.00497582 -1.11183e-05 8.6658e-07
0 0 0.00666667
0.00379048 0.00361255 0.00522626
0.00497851 -1.06055e-05 0.00999839
0.00996543 -2.87613e-05 0.00666451
0 0 0.005
0.0087847 0.00997776 0.00121923
0.00999848 0.00875325 0.00121908
0.00996468 -2.88489e-05 0.00499858
0.00998275 0.00497318 -5.25871e-07
0.00121558 0.00121924 -7.98379e-09
0 0.00122008 0.00122008
0 0.00333333 0.01
0 0.00666667 0.01
0.00877943 0.00875805 -7.29708e-07
0.0100042 0.00997304 0.00333165
0.00421989 0.00999349 0.00339942
0.00999358 0.00664112 0.00999665
0 0.00333333 0
0 0.00122008 0.00877992
0.00121492 -8.33844e-07 0.00877969
0.00121613 0.00121951 0.0100001
0.00878767 0.00997833 0.00877733
0.00122011 0.00877944 0.00999988
0 0.00877992 0.00877992
0.0100017 0.00875398 0.00877674
0.00667211 0.00998547 -5.44582e-07
0.00996796 0.00119144 0.00121984
0.00122111 0.00999945 0.00878009
0.00878348 0.00875883 0.00999711
0.00998681 0.00497411 0.00999668
0 0 0.00333333
0.00663636 -1.65642e-05 8.26988e-07
0.00874479 -2.44719e-05 0.00122043
0.00120597 -8.68175e-07 0.0012121
0 0.00877992 0.00122008
0.00122008 0.00877939 1.00213e-07
0.00121244 0.0099995 0.00121142
0.00997113 0.00119204 0.00877687
0.00875319 0.0011968 0.00999707
0.00663993 -1.60669e-05 0.00999756
0.00874913 0.00119618 1.92894e-07
0.00874794 -2.39519e-05 0.00877713
0.00997609 0.00330593 -3.29396e-07
0.00333843 0.00999543 0.00999957
0.00246208 0.00999781 0.00135634
0.00667522 0.00998618 0.00999816
0.00998009 0.00330685 0.00999668
0 0.01 0.005
0.00262425 0.00848456 1.76287e-07
0.0100049 0.00997324 0.0049979
0 0.01 0.00333333
0 0.00166667 0
0.00996332 -2.92886e-05 0.0016665
0 0.00166667 0.01
0 0.00833333 0
0.0099963 0.00830666 -9.91192e-07
0.00996614 -2.8827e-05 0.0083303
0.0100036 0.00997282 0.00166543
0.0100063 0.00997344 0.00833028
0.00166912 0.00999848 0.00999989
0 0.01 0.00833333
0.00833813 0.0099793 -7.98209e-07
0.0082988 -2.30214e-05 4.78157e-07
0.00830281 -2.24867e-05 0.00999699
0.0083418 0.00997989 0.00999737
0 0 0.00833333
0.0100004 0.00830752 0.0099966
0.00165786 -2.15542e-06 2.62135e-07
0 0 0.00166667
0.00333782 0.0099956 5.12817e-08
0.00997342 0.00163879 0.00999662
0.00996936 0.00163813 -1.89137e-07
0.00165898 -1.77128e-06 0.00999998
0.00166878 0.00999878 6.99427e-08
0 0.01 0.00166667
0.0100071 0.00997347 0.00999667
0 0 0.01
0.010003 0.00997264 -1.26881e-06
0.0099668 -2.89406e-05 0.00999634
0 0.01 0.01
0.00996268 -2.94959e-05 6.85034e-08
0 0.01 0
0 0 0
0.00500521 0.00999087 -1.87324e-07
0.00331822 -5.59985e-06 0.00999906
0 0.00833333 0.01

CELLS 343 686
1 0
1 1
1 2
1 3
1 4
1 5
1 6
1 7
1 8
1 9
1 10
1 11
1 12
1 13
1 14
1 15
1 16
1 17
1 18
1 19
1 20
1 21
1 22
1 23
1 24
1 25
1 26
1 27
1 28
1 29
1 30
1 31
1 32
1 33
1 34
1 35
1 36
1 37
1 38
1 39
1 40
1 41
1 42
1 43
1 44
1 45
1 46
1 47
1 48
1 49
1 50
1 51
1 52
1 53
1 54
1 55
1 56
1 57
1 58
1 59
1 60
1 61
1 62
1 63
1 64
1 65
1 66
1 67
1 68
1 69
1 70
1 71
1 72
1 73
1 74
1 75
1 76
1 77
1 78
1 79
1 80
1 81
1 82
1 83
1 84
1 85
1 86
1 87
1 88
1 89
1 90
1 91
1 92
1 93
1 94
1 95
1 96
1 97
1 98
1 99
1 100
1 101
1 102
1 103
1 104
1 105
1 106
1 107
1 108
1 109
1 110
1 111
1 112
1 113
1 114
1 115
1 116
1 117
1 118
1 119
1 120
1 121
1 122
1 123
1 124
1 125
1 126
1 127
1 128
1 129
1 130
1 131
1 132
1 133
1 134
1 135
1 136
1 137
1 138
1 139
1 140
1 141
1 142
1 143
1 144
1 145
1 146
1 147
1 148
1 149
1 150
1 151
1 152
1 153
1 154
1 155
1 156
1 157
1 158
1 159
1 160
1 161
1 162
1 163
1 164
1 165
1 166
1 167
1 168
1 169
1 170
1 171
1 172
1 173
1 174
1 175
1 176
1 177
1 178
1 179
1 180
1 181
1 182
1 183
1 184
1 185
1 186
1 187
1 188
1 189
1 190
1 191
1 192
1 193
1 194
1 195
1 196
1 197
1 198
1 199
1 200
1 201
1 202
1 203
1 204
1 205
1 206
1 207
1 208
1 209
1 210
1 211
1 212
1 213
1 214
1 215
1 216
1 217
1 218
1 219
1 220
1 221
1 222
1 223
1 224
1 225
1 226
1 227
1 228
1 229
1 230
1 231
1 232
1 233
1 234
1 235
1 236
1 237
1 238
1 239
1 240
1 241
1 242
1 243
1 244
1 245
1 246
1 247
1 248
1 249
1 250
1 251
1 252
1 253
1 254
1 255
1 256
1 257
1 258
1 259
1 260
1 261
1 262
1 263
1 264
1 265
1 266
1 267
1 268
1 269
1 270
1 271
1 272
1 273
1 274
1 275
1 276
1 277
1 278
1 279
1 280
1 281
1 282
1 283
1 284
1 285
1 286
1 287
1 288
1 289
1 290
1 291
1 292
1 293
1 294
1 295
1 296
1 297
1 298
1 299
1 300
1 301
1 302
1 303
1 304
1 305
1 306
1 307
1 308
1 309
1 310
1 311
1 312
1 313
1 314
1 315
1 316
1 317
1 318
1 319
1 320
1 321
1 322
1 323
1 324
1 325
1 326
1 327
1 328
1 329
1 330
1 331
1 332
1 333
1 334
1 335
1 336
1 337
1 338
1 339
1 340
1 341
1 342

CELL_TYPES 343
1
1
1
1
1
1
1
1
1
1
1
1
1
1
1
1
1
1
1
1
1
1
1
1
1
1
1
1
1
1
1
1
1
1
1
1
1
1
1
1
1
1
1
1
1
1
1
1
1
1
1
1
1
1
1
1
1
1
1
1
1
1
1
1
1
1
1
1
1
1
1
1
1
1
1
1
1
1
1
1
1
1
1
1
1
1
1
1
1
1
1
1
1
1
1
1
1
1
1
1
1
1
1
1
1
1
1
1
1
1
1
1
1
1
1
1
1
1
1
1
1
1
1
1
1
1
1
1
1
1
1
1
1
1
1
1
1
1
1
1
1
1
1
1
1
1
1
1
1
1
1
1
1
1
1
1
1
1
1
1
1
1
1
1
1
1
1
1
1
1
1
1
1
1
1
1
1
1
1
1
1
1
1
1
1
1
1
1
1
1
1
1
1
1
1
1
1
1
1
1
1
1
1
1
1
1
1
1
1
1
1
1
1
1
1
1
1
1
1
1
1
1
1
1
1
1
1
1
1
1
1
1
1
1
1
1
1
1
1
1
1
1
1
1
1
1
1
1
1
1
1
1
1
1
1
1
1
1
1
1
1
1
1
1
1
1
1
1
1
1
1
1
1
1
1
1
1
1
1
1
1
1
1
1
1
1
1
1
1
1
1
1
1
1
1
1
1
1
1
1
1
1
1
1
1
1
1
1
1
1
1
1
1
1
1
1
1
1
1
1
1
1
1
1
1
1
1
1
1
1
1
1
1
1
1
1
1
1
1
1
1
1
1

POINT_DATA 343
FIELD FieldData 8

NodeID_(#) 1 343 int
0
1
2
3
4
5
6
7
8
9
10
11
12
13
14
15
16
17
18
19
20
21
22
23
24
25
26
27
28
29
30
31
32
33
34
35
36
37
38
39
40
41
42
43
44
45
46
47
48
49
50
51
52
53
54
55
56
57
58
59
60
61
62
63
64
65
66
67
68
69
70
71
72
73
74
75
76
77
78
79
80
81
82
83
84
85
86
87
88
89
90
91
92
93
94
95
96
97
98
99
100
101
102
103
104
105
106
107
108
109
110
111
112
113
114
115
116
117
118
119
120
121
122
123
124
125
126
127
128
129
130
131
132
133
134
135
136
137
138
139
140
141
142
143
144
145
146
147
148
149
150
151
152
153
154
155
156
157
158
159
160
161
162
163
164
165
166
167
168
169
170
171
172
173
174
175
176
177
178
179
180
181
182
183
184
185
186
187
188
189
190
191
192
193
194
195
196
197
198
199
200
201
202
203
204
205
206
207
208
209
210
211
212
213
214
215
216
217
218
219
220
221
222
223
224
225
226
227
228
229
230
231
232
233
234
235
236
237
238
239
240
241
242
243
244
245
246
247
248
249
250
251
252
253
254
255
256
257
258
259
260
261
262
263
264
265
266
267
268
269
270
271
272
273
274
275
276
277
278
279
280
281
282
283
284
285
286
287
288
289
290
291
292
293
294
295
296
297
298
299
300
301
302
303
304
305
306
307
308
309
310
311
312
313
314
315
316
317
318
319
320
321
322
323
324
325
326
327
328
329
330
331
332
333
334
335
336
337
338
339
340
341
342

Component_(#) 1 343 int
0
0
0
0
0
0
0
0
0
0
0
0
0
0
0
0
0
0
0
0
0
0
0
0
0
0
0
0
0
0
0
0
0
0
0
0
0
0
0
0
0
0
0
0
0
0
0
0
0
0
0
0
0
0
0
0
0
0
0
0
0
0
0
0
0
0
0
0
0
0
0
0
0
0
0
0
0
0
0
0
0
0
0
0
0
0
0
0
0
0
0
0
0
0
0
0
0
0
0
0
0
0
0
0
0
0
0
0
0
0
0
0
0
0
0
0
0
0
0
0
0
0
0
0
0
0
0
0
0
0
0
0
0
0
0
0
0
0
0
0
0
0
0
0
0
0
0
0
0
0
0
0
0
0
0
0
0
0
0
0
0
0
0
0
0
0
0
0
0
0
0
0
0
0
0
0
0
0
0
0
0
0
0
0
0
0
0
0
0
0
0
0
0
0
0
0
0
0
0
0
0
0
0
0
0
0
0
0
0
0
0
0
0
0
0
0
0
0
0
0
0
0
0
0
0
0
0
0
0
0
0
0
0
0
0
0
0
0
0
0
0
0
0
0
0
0
0
0
0
0
0
0
0
0
0
0
0
0
0
0
0
0
0
0
0
0
0
0
0
0
0
0
0
0
0
0
0
0
0
0
0
0
0
0
0
0
0
0
0
0
0
0
0
0
0
0
0
0
0
0
0
0
0
0
0
0
0
0
0
0
0
0
0
0
0
0
0
0
0
0
0
0
0
0
0
0
0
0
0
0
0
0
0
0
0
0
0
0
0
0
0
0
0

NodalMass_(kg) 1 343 double
3.15563e-06
1.41304e-05
2.20912e-06
1.71484e-05
8.42e-06
9.09306e-06
9.93033e-06
7.52198e-06
6.81096e-06
5.58223e-06
3.10888e-06
1.07575e-05
4.87011e-06
1.64955e-05
3.0246e-06
8.05984e-06
6.703e-06
1.0877e-05
4.18978e-06
8.16106e-06
6.14143e-06
1.17902e-05
2.23114e-06
4.25176e-06
1.09915e-05
7.41467e-06
4.21871e-06
3.92484e-06
3.08766e-06
1.31268e-05
7.72627e-06
1.65404e-05
1.19037e-05
7.29666e-06
3.81683e-06
1.11001e-05
3.81317e-06
1.39137e-05
6.37414e-06
8.00975e-06
7.6712e-06
1.18847e-05
1.6399e-05
2.78633e-06
8.93599e-06
2.58087e-06
7.57362e-06
4.23241e-06
1.31286e-05
3.80168e-06
2.7746e-06
7.16776e-06
1.21307e-05
5.11765e-06
8.19728e-06
4.58094e-06
2.79503e-06
3.26126e-06
4.12443e-06
2.11915e-06
3.35177e-06
3.61669e-06
1.56838e-05
7.33679e-06
8.24695e-06
5.00369e-06
2.82625e-06
7.20276e-06
3.26815e-06
4.18751e-06
2.02785e-06
2.42152e-06
3.11835e-06
5.97459e-06
5.87101e-06
4.09374e-06
5.45463e-06
2.28825e-06
4.49759e-06
4.38192e-06
4.50892e-06
4.39234e-06
4.27273e-06
5.32031e-06
1.53201e-06
2.38869e-06
2.02885e-06
4.38798e-06
3.17972e-06
3.14298e-06
4.61567e-06
5.87645e-06
8.18088e-06
2.48341e-06
1.53815e-05
3.49683e-06
7.35227e-06
2.01314e-06
2.0408e-06
7.98183e-06
4.41293e-06
7.1389e-06
1.20123e-06
5.03343e-06
1.61257e-06
4.12601e-06
8.73748e-06
4.37849e-06
7.97173e-06
2.13557e-06
3.38137e-06
9.48623e-06
7.40262e-06
1.80226e-06
2.10222e-06
7.98889e-06
1.87983e-06
7.44814e-06
4.19782e-06
2.37156e-06
4.31705e-06
6.06441e-06
4.30905e-06
2.16843e-06
1.8986e-06
1.81294e-06
3.89762e-06
2.44299e-06
1.65628e-06
8.01374e-06
1.64513e-06
2.3931e-06
3.01363e-06
2.99431e-06
1.36541e-06
1.87293e-06
2.09622e-06
1.94762e-06
1.87618e-06
6.37913e-06
4.58628e-06
2.02767e-06
1.61999e-06
2.41284e-06
3.8865e-06
4.44973e-06
2.29839e-06
1.17349e-05
3.11811e-06
1.354e-06
3.45063e-06
1.81846e-06
2.9382e-06
1.37381e-06
2.41464e-06
2.10451e-06
2.63927e-06
2.14166e-06
1.7943e-06
3.19976e-06
1.36989e-06
2.43489e-06
2.08158e-06
1.3601e-06
2.17203e-06
1.89924e-06
3.16996e-06
2.6119e-06
2.37677e-06
1.60225e-06
1.90684e-06
5.49206e-06
1.87878e-06
3.14313e-06
2.97301e-06
1.18454e-06
1.89263e-06
2.04166e-06
2.73572e-06
2.42405e-06
3.23083e-06
3.19752e-06
3.2142e-06
1.94492e-06
1.61196e-06
1.86876e-06
3.22435e-06
2.1114e-06
2.96917e-06
6.15288e-06
2.3097e-06
2.39729e-06
2.38029e-06
2.64508e-06
1.66557e-06
1.82377e-06
2.06583e-06
5.73271e-06
2.08467e-06
2.18324e-06
2.43522e-06
3.1188e-06
3.17316e-06
2.05447e-06
1.9592e-06
3.05718e-06
6.44327e-06
2.08796e-06
2.72615e-06
2.15709e-06
1.86812e-06
2.0028e-06
2.10999e-06
2.88994e-06
2.3222e-06
2.3979e-06
1.97629e-06
6.4127e-06
2.16225e-06
3.29198e-06
2.10223e-06
2.66566e-06
1.94415e-06
2.91865e-06
2.58116e-06
2.11703e-06
2.09534e-06
1.91719e-06
7.06046e-06
2.25203e-06
2.06378e-06
6.28159e-06
2.12147e-06
2.90924e-06
2.12921e-06
6.4487e-06
1.41701e-06
2.0682e-06
6.58062e-06
2.52584e-06
2.39732e-06
7.42191e-07
2.22368e-06
7.06751e-07
7.00657e-07
8.93749e-07
2.53536e-06
2.26535e-06
1.33607e-06
7.84725e-07
2.32303e-06
6.06694e-07
6.68276e-07
6.84307e-07
2.51242e-06
2.31629e-06
7.8367e-07
6.80839e-07
6.22692e-06
6.7471e-07
6.65305e-07
7.01158e-07
1.8232e-06
1.90695e-06
6.86722e-07
7.04792e-07
1.86445e-06
2.28572e-06
6.8045e-07
7.16005e-07
1.82373e-06
6.01079e-07
2.02791e-06
7.4579e-07
5.74423e-07
1.80052e-06
1.454e-06
2.2702e-06
1.80636e-06
2.15356e-06
1.79089e-06
1.79456e-06
6.8231e-07
2.24737e-06
1.45239e-06
1.79556e-06
6.97875e-07
6.24265e-07
6.62717e-07
1.44627e-06
1.40138e-06
2.15258e-06
1.82851e-06
1.3994e-06
1.43932e-06
2.19226e-06
6.97732e-07
1.77726e-06
1.79162e-06
6.54258e-07
7.3397e-07
2.34895e-06
7.10392e-07
6.56982e-07
6.26314e-07
2.18926e-06
6.12493e-07
6.03901e-07
5.92831e-07
5.12031e-07
5.11667e-07
4.9467e-07
4.97016e-07
4.96269e-07
5.33079e-07
4.94191e-07
4.97855e-07
4.86862e-07
4.90626e-07
4.94649e-07
4.94954e-07
4.91922e-07
4.89615e-07
4.96354e-07
4.95189e-07
4.82188e-07
1.10854e-06
5.3299e-07
5.44763e-07
5.36655e-07
5.15417e-07
5.01772e-07
5.53774e-07
5.53774e-07
5.53774e-07
5.53774e-07
5.53774e-07
5.53774e-07
5.50785e-07
5.50785e-07
7.45291e-07
7.11668e-07
4.9897e-07

NodalForce_(N) 3 343 double
-5.66383e-09 3.1257e-09 4.00883e-09
-1.41073e-07 6.09011e-08 -4.56966e-09
0.000356035 0.000389425 0.000431545
-3.02018e-08 1.70251e-08 -1.5308e-09
-1.99512e-07 2.22799e-08 4.24262e-08
-3.06763e-07 1.07782e-07 7.08757e-08
-2.703e-07 1.40753e-07 3.04177e-07
-8.96515e-08 1.17163e-07 1.13333e-07
-3.42749e-07 4.48533e-08 1.66271e-07
-1.35234e-07 8.28268e-08 2.34654e-08
-1.27092e-07 -2.54036e-08 5.86406e-08
-4.85696e-07 -1.64338e-08 1.71701e-07
-1.66571e-07 -7.43635e-08 5.45426e-08
2.28478e-08 2.11381e-08 1.64106e-10
-1.26327e-07 7.27527e-09 6.23589e-08
-3.8958e-07 1.53352e-07 2.16792e-07
-1.86014e-07 1.29837e-07 1.06918e-07
-1.21724e-09 3.08169e-08 -1.3815e-08
-0.00130231 0.000687038 -0.000158057
-1.82564e-08 1.39275e-08 -3.27533e-09
-3.93481e-08 2.82053e-08 1.47581e-07
-4.05833e-07 -5.21631e-08 3.90214e-07
-0.000522747 -0.00162641 -0.000819952
5.23651e-08 -2.88422e-08 9.29088e-08
-3.23932e-08 -2.02474e-08 1.76327e-07
1.32813e-08 5.82501e-08 9.24629e-08
-4.26495e-09 -9.15026e-09 -3.13445e-09
-2.22838e-08 -5.36371e-08 5.14039e-08
-1.03502e-08 2.01937e-08 2.978e-08
-2.44258e-07 3.56636e-08 5.0514e-09
-6.41223e-08 1.0816e-07 1.02234e-07
-9.86352e-07 2.2979e-07 7.40178e-07
-7.97985e-07 1.59595e-07 5.01336e-07
-2.45746e-07 1.20188e-07 3.16473e-07
6.78834e-08 1.21875e-08 2.53703e-07
-2.24035e-07 1.80323e-07 3.35143e-07
2.07386e-08 -1.93748e-08 1.76756e-07
3.43086e-07 2.15697e-07 6.39705e-07
-9.34516e-08 4.61111e-08 1.30063e-08
-2.75931e-07 8.39535e-08 1.14494e-07
-1.36427e-07 -2.02497e-08 -3.23345e-09
-5.59889e-07 1.3968e-07 1.81185e-07
-2.96221e-07 4.70702e-08 1.97175e-08
-7.68938e-08 -2.70662e-09 6.36593e-09
-2.87475e-07 6.45106e-08 1.78779e-08
0.00095087 0.000754903 -0.000389042
-7.54995e-08 2.13212e-08 -2.85811e-09
-0.000206685 0.00102481 3.36739e-05
-1.29492e-07 6.13353e-08 4.8874e-09
-2.03252e-08 7.91378e-09 8.10061e-09
-2.11175e-07 3.80772e-08 1.30107e-07
-4.04519e-07 1.1834e-07 1.95861e-07
-2.2831e-07 4.55947e-08 -6.14e-09
-1.13916e-07 4.13544e-08 2.87308e-09
-6.85189e-08 2.07184e-08 -4.02561e-09
-2.50676e-07 3.84691e-08 3.23102e-07
0.000786719 0.000600562 0.000691208
-1.58429e-08 9.81835e-09 1.06663e-08
-9.46958e-05 -2.12999e-05 -0.000330857
-6.98229e-08 1.8167e-08 1.46408e-07
-7.89487e-08 1.81584e-08 3.80095e-08
-5.62568e-08 -7.91988e-08 2.39712e-07
1.26305e-07 -1.29531e-07 6.9675e-07
-9.74525e-08 2.7999e-08 3.18151e-07
-1.12469e-07 -1.47497e-08 -1.1231e-08
-8.04434e-08 -8.37764e-09 9.63571e-10
-3.08556e-08 -2.70181e-08 -8.36606e-10
-4.0378e-07 9.24994e-08 1.90049e-07
3.66603e-08 2.87075e-08 2.15672e-07
-1.24972e-07 -1.22564e-07 1.8672e-07
2.94709e-08 8.17148e-09 2.91881e-08
-4.73861e-08 -7.06296e-09 2.30913e-08
-3.65077e-08 -2.75386e-08 3.18932e-09
-2.30668e-07 8.29311e-08 7.13922e-08
-4.92769e-08 3.50408e-08 -7.83616e-09
0.00143117 0.000569319 0.000341887
-7.68469e-08 5.20057e-08 2.5812e-08
5.73996e-09 1.80643e-09 5.28147e-09
-3.20083e-07 3.94196e-08 1.59118e-07
-2.58943e-07 -3.71543e-09 1.25207e-07
-2.08045e-07 7.22816e-10 5.98871e-08
-2.32912e-07 2.23246e-08 9.49256e-08
-3.99768e-08 2.65014e-08 2.83833e-07
-1.1274e-07 5.1108e-08 -3.618e-09
5.08566e-05 -0.00110014 0.000385712
-2.32081e-08 2.70908e-09 4.96095e-09
0.000103325 -0.000689545 0.000424547
-0.000763964 -0.000333656 7.26895e-05
-0.000286956 0.000255573 -0.00016569
2.06472e-08 1.52923e-08 2.60902e-08
-4.82193e-08 8.78528e-09 1.13479e-08
-2.15881e-07 9.25591e-08 5.60801e-08
-2.79118e-07 8.24268e-08 7.41601e-08
-1.97877e-07 -2.93571e-09 1.06006e-07
-1.15308e-06 -1.19229e-07 6.22299e-07
-4.58262e-08 -8.2787e-08 9.23601e-08
-1.01459e-07 -3.99198e-08 1.08824e-07
7.92413e-09 -1.76001e-08 1.38918e-07
-6.86976e-05 0.00010069 -4.23998e-06
-3.45316e-07 9.92015e-08 1.47416e-07
8.04134e-08 -4.63293e-08 1.6444e-07
3.77598e-08 4.82457e-08 2.03457e-07
-3.43883e-08 -6.41451e-10 -2.88162e-10
-1.03676e-07 -3.19993e-08 2.25686e-07
1.78753e-08 -3.29318e-09 1.45951e-08
3.13993e-09 -8.35267e-08 1.18389e-07
-1.14266e-07 1.117e-07 1.52091e-07
-2.36665e-07 -1.26681e-07 1.87277e-07
-3.47604e-07 -4.57924e-08 1.19809e-07
-1.69487e-09 1.76044e-09 3.61428e-09
1.22799e-07 5.91712e-08 1.8373e-07
-8.0783e-08 1.31898e-07 1.66659e-07
5.53076e-08 1.49399e-07 2.17966e-07
-0.000738602 -0.00035954 -0.000791372
1.85051e-08 -4.83354e-08 1.48919e-07
-1.38179e-08 1.82608e-08 -4.88462e-09
7.6706e-08 1.05427e-08 1.38317e-07
-5.19617e-08 1.25517e-07 3.16255e-07
2.66426e-08 -4.42492e-09 1.30896e-07
-1.42212e-07 -5.78503e-08 5.52553e-08
-1.74809e-07 -9.56721e-08 2.74966e-07
-2.65738e-07 3.19564e-08 2.58131e-07
-1.44954e-09 -9.85347e-09 -3.31334e-09
0.000214263 0.000176442 0.000123428
-7.36437e-10 -4.31052e-09 -2.06364e-09
-2.76638e-08 1.70376e-08 1.19844e-07
7.99837e-08 4.17197e-08 1.59579e-07
-0.000114187 -0.000750956 -0.000417347
-2.4115e-08 1.76646e-09 4.76926e-09
-2.05904e-07 7.3757e-08 1.30525e-08
-7.14913e-08 -1.17027e-08 8.31873e-08
-7.87478e-08 1.28664e-08 1.68058e-07
-2.05349e-07 -2.14739e-08 9.48128e-08
-2.43446e-07 3.16594e-08 1.388e-07
0.000563566 -0.00115157 -0.000110912
-2.61806e-08 -1.99672e-09 4.71111e-12
7.14989e-05 4.11084e-05 -0.000237519
-1.16518e-08 -6.10928e-08 9.74686e-08
6.32306e-08 2.06522e-08 1.3433e-07
1.46068e-07 1.09621e-07 3.20608e-07
-3.96897e-07 5.66889e-08 2.72674e-07
-1.78075e-07 -2.67055e-08 9.50704e-08
-1.24459e-07 -5.02505e-08 7.21005e-08
-1.55383e-07 -5.82423e-08 1.57763e-07
-0.00106767 0.000289142 9.88081e-05
-2.74362e-07 -9.13103e-08 1.02663e-07
-3.60275e-08 -3.26709e-08 7.41065e-09
1.7519e-07 1.24045e-07 5.03853e-07
7.15805e-08 3.68065e-09 2.20239e-07
-5.13468e-08 -1.24358e-09 7.45792e-09
-9.13664e-08 -7.38892e-09 5.61341e-10
-4.40295e-09 -3.75154e-09 -1.05738e-09
-0.000261643 -0.000725725 -7.12504e-05
-4.63467e-08 1.25961e-08 9.05435e-08
8.74166e-09 -6.61391e-09 6.84142e-08
-1.63566e-07 1.46633e-08 1.11955e-07
0.0005251 -0.000851487 0.000266088
-0.00148863 0.000127857 0.000518033
-1.35895e-07 2.79331e-08 7.90488e-08
-1.55405e-07 -1.77571e-08 2.05922e-07
-3.89149e-08 -2.14217e-08 4.32388e-09
-6.86305e-08 -1.87723e-09 1.06727e-08
5.68813e-08 -3.05864e-08 1.17218e-07
-9.17105e-08 1.87586e-08 4.74366e-08
-1.13284e-07 1.69951e-08 1.57464e-07
-1.5562e-07 2.07927e-08 1.18204e-07
8.13391e-08 4.97824e-09 1.58117e-07
1.3517e-08 2.79698e-08 4.03687e-08
1.04586e-07 2.53937e-08 1.41888e-07
4.88898e-08 -5.58186e-09 7.61642e-08
4.10371e-08 3.36025e-08 7.76072e-08
7.71353e-09 1.10603e-07 1.48823e-07
8.8477e-09 -5.37995e-08 8.43154e-08
-9.213e-08 1.93141e-08 3.65327e-08
-1.53173e-07 3.52455e-08 6.8256e-08
-5.41065e-08 1.25101e-08 2.70842e-08
-1.16059e-07 -8.43636e-09 8.4448e-08
-2.55296e-08 -1.73754e-08 5.49347e-09
4.26227e-08 2.4338e-08 1.84694e-07
0.000281292 -0.00073297 -0.000605081
-2.13076e-07 4.72877e-09 2.26549e-07
1.48221e-07 1.34306e-08 2.24084e-07
1.03468e-07 -3.33373e-08 2.39593e-07
0.000281571 -0.000819541 0.000409198
-5.84258e-08 4.02435e-09 1.59489e-08
-1.5437e-07 -5.27922e-08 6.88146e-08
-3.09741e-07 -1.34507e-08 1.83688e-07
-1.93177e-07 1.26074e-08 1.30996e-07
-1.18986e-07 -5.00902e-09 3.041e-08
-1.92255e-07 8.64452e-08 3.64236e-08
-5.70991e-08 -3.81852e-09 2.36446e-08
-1.0546e-07 -6.44493e-09 6.13929e-08
-9.28319e-08 1.64221e-08 3.24184e-08
4.10887e-08 2.95352e-08 6.19586e-08
-2.13359e-08 -1.50129e-08 -5.42204e-09
-2.55651e-08 -2.03349e-08 -3.96007e-09
9.18771e-08 2.88219e-10 1.63905e-07
-8.9343e-08 4.05744e-08 6.10682e-08
-4.84198e-09 5.29774e-09 1.38604e-07
6.37734e-08 4.13386e-08 1.08566e-07
7.50955e-08 -1.48415e-08 1.26151e-07
0.000332733 -0.000429686 0.000211882
-4.62812e-08 -4.45249e-09 -1.16243e-09
4.59902e-06 0.000473524 0.000142003
3.27757e-09 1.09706e-08 4.85116e-08
-4.382e-08 -6.62882e-09 4.11392e-08
-2.85266e-08 9.37008e-08 9.16683e-08
6.62879e-08 2.34845e-08 1.12826e-07
-6.15872e-08 -5.24055e-08 2.30596e-08
-8.36805e-08 -4.25077e-08 1.79623e-08
-2.6915e-08 -2.86317e-09 -7.6387e-10
8.27772e-08 -1.44516e-08 1.40866e-07
-9.76568e-08 8.59918e-09 1.39602e-07
-5.47258e-08 -9.27905e-09 7.36255e-08
-1.49219e-07 1.61485e-08 7.61204e-08
-1.30618e-08 -1.53125e-08 7.11271e-09
-1.46865e-07 -2.55153e-08 1.38106e-07
-5.73591e-08 3.50795e-08 -6.51046e-09
4.64383e-08 2.55683e-08 8.59841e-08
1.65938e-07 5.42164e-08 2.31131e-07
-1.00567e-07 -1.54698e-09 3.30679e-08
-7.33689e-08 8.90893e-09 1.7466e-07
-2.67077e-08 -1.8204e-09 2.94351e-08
-1.08783e-07 -6.99885e-08 6.99887e-08
-6.94326e-08 -4.9124e-09 -3.2269e-09
-0.000766689 -0.00016316 0.000238184
-1.18392e-07 1.98716e-08 5.2475e-08
-8.8573e-08 -3.58538e-08 2.442e-08
-1.10619e-07 7.3048e-08 -9.85694e-09
-7.00604e-08 -4.77996e-09 2.88186e-09
-4.55997e-08 -3.17694e-08 -3.75569e-09
-1.27873e-07 6.77966e-08 6.2573e-09
0.000764145 -0.000827178 5.15169e-06
-0.000245462 -5.277e-05 0.000211234
3.5807e-08 3.88144e-08 7.03994e-08
-1.14549e-07 1.07802e-07 3.79628e-08
-1.65982e-08 -2.55295e-08 2.11555e-08
-2.03236e-08 2.07439e-08 1.35756e-07
-1.47704e-07 7.52172e-08 -5.46366e-09
-1.61495e-07 3.71309e-08 8.61457e-08
1.05644e-07 2.13824e-08 1.84429e-07
0.000378553 -6.12795e-06 0.000283141
1.32272e-07 3.186e-08 1.6382e-07
4.58972e-09 -1.22213e-08 1.46703e-08
0.000594349 -0.000524986 -4.32861e-06
-5.83007e-08 -5.9183e-09 3.1473e-08
0.00102803 -0.00026052 -0.000220975
1.28032e-07 2.49021e-08 1.80724e-07
9.68296e-08 1.40287e-08 1.25262e-07
8.73998e-05 -0.00034364 3.71959e-05
3.95604e-08 5.61439e-09 6.98303e-08
-0.00027118 -0.000305193 -0.000266813
-1.01044e-08 -2.87559e-08 4.55519e-08
-7.36668e-09 -1.06612e-08 4.55358e-08
1.23007e-08 2.94002e-08 6.28444e-08
-5.20172e-08 -1.63867e-08 1.52487e-07
8.98913e-09 -1.8979e-08 2.79113e-08
-0.000718158 -0.000756648 -9.23969e-05
-9.31446e-08 5.55969e-08 -5.73785e-09
-3.79029e-08 -1.1882e-08 1.71933e-08
-4.24248e-08 -2.76572e-08 4.16068e-08
-0.000608056 -0.00056168 -2.54671e-05
9.65803e-08 -1.13288e-08 1.17965e-07
1.23536e-07 5.2499e-09 1.54342e-07
-2.78487e-08 -2.88242e-08 4.39968e-08
4.54823e-08 4.28449e-09 6.58134e-08
3.43464e-09 -1.04402e-10 3.73258e-09
0.000173116 0.000705696 -0.000299196
-0.000131266 0.00012249 9.93006e-05
3.36702e-05 -0.000248464 6.3432e-05
1.20892e-07 1.29174e-08 1.36977e-07
2.37203e-08 -8.32964e-09 4.13886e-08
-5.08332e-08 -4.26845e-09 5.78524e-09
-5.72788e-08 5.96688e-09 6.18834e-08
1.2429e-05 -0.000183611 9.15201e-05
6.70615e-05 0.000561378 0.000164786
-1.6668e-09 -3.96773e-09 -2.32824e-10
4.04893e-10 -7.40606e-12 2.20453e-09
-1.04789e-07 -1.63169e-08 1.09937e-07
-3.10389e-08 1.90363e-09 5.18783e-09
1.68174e-05 0.000454663 -0.000163109
-8.88105e-08 3.2661e-09 1.35387e-07
2.24471e-08 -2.58633e-09 3.28739e-08