# vtk DataFile Version 4.2
vtk output
ASCII
DATASET UNSTRUCTURED_GRID

POINTS 343 double
0.00128598 0.00420133 -5.94402e-06
0.00248566 0.0049952 0.00216372
0 0.00419538 0.00112517
0.00221235 0.00196556 0.00193178
0.00592451 0.00243991 0.00500565
0.00592313 0.00386289 0.00637046
0.00873185 0.00482687 0.00496128
0.00712937 0.0048913 0.00366114
0.00783198 0.00333379 0.00687865
0.00571365 0.00502414 0.00497411
0.00479071 0.00114346 0.00997718
0.0060511 0.00211372 0.0078764
0.00480499 1.78235e-05 0.00829525
0.00230557 0.00201382 0.00802242
0.00490921 0.00255917 0.00997673
0.00796104 0.00649257 0.00691104
0.00734103 0.00622442 0.00515072
0.00259042 0.00219776 0.00513417
0 0.00143586 0.00417514
0.00182658 0.00347515 0.0040286
0.00783757 0.00323962 0.00312855
0.00888012 0.00226537 0.00502572
0 0.00270918 0.00154168
0.00477129 0.00145487 -1.99845e-05
0.00574237 0.00221995 0.00217339
0.00454088 0.00355131 0.0015834
0.00154313 6.77632e-06 0.00405282
0.00480113 1.83248e-05 0.00166745
0.00300641 0.00696747 -1.32621e-05
0.00221673 0.00806386 0.00193454
0.00467909 0.00627341 0.00162483
0.009156 0.00803894 0.00795589
0.00912148 0.00486906 0.00798083
0.0096066 0.00613638 0.00590628
0.0114538 0.00889364 0.00414454
0.00867125 0.00768596 0.00492632
0.00980317 0.0100356 0.00412559
0.00913305 0.00802462 0.00197935
0.00405013 0.00305801 0.0069409
0.00508101 0.00368937 0.00830076
0.00446142 0.0016243 0.00594846
0.00572261 0.00769968 0.00765063
0.00227451 0.0080192 0.00797915
0.00322903 0.0100137 0.00711247
0.00447633 0.00842354 0.0059374
0 0.00695361 0.00262895
0.0018841 0.00624869 0.00407911
0 0.0040177 0.00850214
0.00264911 0.00499901 0.00764924
0.00164039 0.00418248 0.00999232
0.00820828 0.00716467 0.0099603
0.00700068 0.00601003 0.00838535
0.00234638 0.00795322 0.00473096
0.00348103 0.0069608 0.0064518
0.00181575 0.00608732 0.00591753
0.0114463 0.00585242 0.00826358
0 0.00718191 0.00711644
0.00181424 0.00578278 -8.29662e-06
0 0.00577432 0.00158701
0.0114491 0.00722561 0.00706381
0.00328259 0.00336615 0.00998459
0.0114421 0.00147839 0.00412661
0.00921898 0.00199779 0.00194173
0.00961752 0.00355931 0.00395798
0.00427128 0.00167091 0.00410878
0.0017244 0.0100078 0.005807
0.00322272 1.25827e-05 0.0071128
0.00699589 0.00421081 0.00834389
0.011451 0.00731743 0.00414668
0.00978788 3.62529e-05 0.00412614
0.00383163 0.00289018 -1.64251e-05
0.00309379 0.0015544 0.00998534
0.00323402 1.2774e-05 0.00281736
0.00549102 0.00522397 0.00752901
0.00361814 0.00316523 0.00315073
0 0.00849157 0.00581511
0.00557322 0.00370031 0.00376143
0.0017619 0.00271734 -8.08247e-06
0.00662986 0.00835263 0.00996794
0.00683856 0.0100266 0.00847347
0.00481338 0.0100197 0.00829525
0.0045911 0.00852287 0.00997816
0.011452 0.00853491 0.00576402
0.00360077 0.00685242 0.00313432
0 0.00748929 0.00137438
0.00157127 0.00749671 -7.27479e-06
0 0.00287343 0.00335182
0 0.00580816 0.00831736
0 0.00429792 0.00253898
0.00290289 0.00431104 -1.27598e-05
0.00164016 0.0058271 0.00999233
0.00592053 0.00650129 0.00637316
0.0041211 0.00653075 0.00821496
0.00794314 0.00265847 0.00996169
0.00917004 0.00199361 0.00799218
0.00796692 2.93547e-05 0.00304825
0.00688153 0.00169166 0.00358298
0.0114449 0.00291705 0.00330445
0 0.00140616 0.00256446
0.00728853 0.00825799 0.00638746
0.00665232 0.00146135 -2.66624e-05
0.00690341 0.00358055 0.00157462
0.00360608 0.0100152 0.00580839
0.00979575 0.0100355 0.00578923
0.0029305 0.00141856 -1.27023e-05
0.0068302 2.56251e-05 0.00146617
0.00718457 0.00831768 0.003586
0.00978055 3.61002e-05 0.00578939
0.00709184 0.0017007 0.00633261
0.00160613 0.00257166 0.00999251
0.00814479 0.00721541 -3.22892e-05
0.00590928 0.00771547 0.00214373
0.00679798 0.00612267 0.00157373
0 0.00686719 0.00578184
0.0114436 0.00144871 0.00251793
0.00202953 0.00361991 0.00639837
0.0114548 0.00853029 0.00257689
0.0096256 0.00622782 0.00409138
0.00684223 0.0100268 0.00146572
0.00796311 2.93017e-05 0.00688934
0.011441 0.00147783 0.00576858
0.0096038 0.00361117 0.00601753
0.0017221 7.46944e-06 0.00580719
0 0.0013659 0.00748679
0.00156332 6.7849e-06 0.00752164
0.011449 0.00691084 0.00573106
0.00665521 0.00851915 -2.67163e-05
0 0.0075208 0.00859127
0.00156079 0.00749386 0.00999269
0.00483733 0.00822675 0.00360642
0.0098327 0.0100356 0.0074662
0.0114515 0.00867336 0.00747326
0.0065957 0.00161228 0.00996811
0.00829784 0.00422128 0.00995992
0 0.0057735 0.00666667
0.00156557 0.010007 0.00752151
0 0.00863025 0.00752641
0.00982 3.61922e-05 0.00246718
0.0114519 0.0069971 0.002582
0.00968165 0.00638074 0.00212345
0.00973219 0.00586212 0.00995275
0.00855861 0.00140621 0.00995834
0.00981753 3.58904e-05 0.00746594
0.0114402 0.00140804 0.0074335
0 0.00143551 0.00581971
0.00682641 2.51526e-05 0.00847325
0.00481157 1.82605e-05 0.00337848
0.00907722 0.00474406 0.00199741
0.0114478 0.00434226 0.00249257
0.00483337 0.0100196 0.00664396
0.00324014 0.0100139 0.00281703
0.00149924 6.59133e-06 0.00241121
0 0.00727418 0.00419576
0.0114468 0.00581807 0.00661451
0.00798083 0.0100303 0.0030477
0.00858697 0.00867048 0.0099586
0 0.00574334 0.00336387
0 0.0043297 0.00416652
0.00785367 0.00581631 0.00996206
0.0114427 0.00306602 0.00686262
0.00482427 1.80238e-05 0.00664415
0.00283236 0.010012 0.0085982
0.00856135 0.00139843 -3.34485e-05
0.0066005 0.00669429 0.00996823
0.0114491 0.00756443 0.00853726
0.00984829 0.00759183 0.00995219
0.0079084 0.00305385 -3.13124e-05
0.00384674 0.00576095 -1.6504e-05
0.00861688 0.00866436 -3.39924e-05
0.00860434 0.0100321 0.00135254
0.00661512 0.00689557 -2.65842e-05
0.00797882 0.00640383 0.00299949
0.00858965 3.15054e-05 0.00135319
0.00329544 0.0050138 0.00998449
0.00494829 0.00585497 0.00997639
0.00494679 0.00418797 0.00997652
0.0085993 0.010032 0.00857486
0.00282671 1.1148e-05 0.00859844
0.0114489 0.00578813 0.0033162
0 0.00302218 0.00691532
0.0114434 0.00406192 0.00844814
0.00972932 0.00405612 -3.74082e-05
0.0114465 0.00275269 0.00149646
0 0.00244495 0.00857025
0.00279467 0.00858241 0.00998674
0.00858534 3.10674e-05 0.00857436
0.009703 0.002661 0.00995267
0.0101228 0.00423333 0.0099507
0.00648558 0.0100254 0.00580318
0.00592968 0.00760895 0.00500525
0.00645468 0.0100254 0.00418635
0.00797657 0.0100302 0.00688916
0.0034537 0.00693078 0.00998366
0.00476412 0.00435069 -1.97887e-05
0.00323652 1.25689e-05 0.00438961
0.0035992 1.38349e-05 0.00580873
0.0114493 0.00423964 0.00108036
0.0041604 0.00835582 0.0015701
0.0114462 0.00437398 0.0041176
0.0076272 0.00580553 -3.018e-05
0.00983547 0.0100357 0.00246644
0 0.00848692 0.00262374
0.0015452 0.010007 0.00405263
0 0.00885053 0.00419359
0.00479832 0.00887093 -2.00501e-05
0.00480978 0.0100196 0.00166693
0.00571513 0.00481619 0.00235428
0.00825893 0.00455531 -3.25166e-05
0.00644361 2.39217e-05 0.004187
0.00647435 2.3932e-05 0.00580361
0.0015013 0.0100068 0.00241095
0.00980515 0.00248268 -3.75506e-05
0.0114448 0.00456608 0.0071666
0.00814218 0.0100306 0.00496383
0.00656229 0.00339066 0.00996853
0.00280721 1.14063e-05 0.00134389
0.0114412 0.00248809 0.0085161
0.00273789 0.00480382 0.00498724
0.00667124 0.00435817 -2.6687e-05
0.00951983 0.00584622 -3.68703e-05
0.00626644 0.0100248 0.00719107
0.0114452 0.00437445 0.00578231
0.00618099 0.0100245 0.00274879
0.00812818 3.00362e-05 0.00496448
0.00324268 0.0100139 0.00438932
0 0.00452174 0.00721958
0.00516794 0.00724218 0.00997529
0.00625528 2.31373e-05 0.00719095
0.0041187 0.0050924 0.00357769
0.00486197 0.0100197 0.00498572
0.00485276 1.8312e-05 0.0049861
0.00419579 0.00523569 0.00615521
0 0.005744 0.00499998
0 0.00433013 0.00583333
0.00571886 0.00576928 -2.32056e-05
0.0056993 0.006364 0.00352846
0.00617024 2.30954e-05 0.00274943
0.0114476 0.00578906 0.00494994
0.00421899 0.00642676 0.0048245
0.00656494 0.00502772 0.00996857
0.0114509 0.00581904 0.00154177
0 0.00666667 0
0.00983725 0.00755971 -3.81125e-05
0.00380757 1.40729e-05 -1.54628e-05
0 0.01 0.00666667
0.00571896 0.010022 0.00997315
0 0.00288419 0.00499914
0.0114543 0.00753276 0.00132944
0.0114546 0.00671107 -4.39189e-05
0 0.005 0.01
0.00571504 0.00290791 -2.33215e-05
0 0.005 0
0.0114408 4.18702e-05 0.003286
0.0114552 0.0100399 0.00661421
0.00479943 0.00729548 -1.99602e-05
0.0114435 0.00292812 0.00494929
0.00571313 2.08395e-05 -2.25989e-05
0 0 0.00666667
0.00434099 0.00363586 0.00520633
0.00570907 2.06419e-05 0.00997237
0.0114386 4.16497e-05 0.00661422
0 0 0.005
0.0100568 0.0100363 0.00118019
0.0114569 0.00882271 0.00117511
0.0114395 4.17952e-05 0.00495006
0.0114521 0.00504446 -4.35547e-05
0.00139405 0.00122633 -6.37807e-06
0 0.00122008 0.00122008
0 0.00333333 0.01
0 0.00666667 0.01
0.0100564 0.00881826 -3.89725e-05
0.0114575 0.01004 0.00328513
0.00482048 0.0100196 0.00337789
0.0114474 0.00671051 0.00994466
0 0.00333333 0
0 0.00122008 0.00877992
0.0013927 5.88009e-06 0.00877334
0.00139331 0.00122625 0.00999351
0.0100512 0.0100361 0.008732
0.00139438 0.00878622 0.00999347
0 0.00877992 0.00877992
0.0114512 0.00882257 0.00872579
0.00763337 0.010029 -3.08604e-05
0.0114446 0.00126244 0.00117537
0.00139487 0.0100062 0.00877339
0.0100485 0.00881774 0.00995138
0.0114447 0.00504403 0.0099445
0 0 0.00333333
0.00762032 2.77767e-05 -2.95871e-05
0.0100411 3.68113e-05 0.00118095
0.00138356 5.95839e-06 0.00120553
0 0.00877992 0.00122008
0.00139504 0.00878642 -6.46701e-06
0.0013855 0.0100062 0.00120512
0.0114393 0.00126193 0.00872527
0.0100373 0.00125693 0.00995078
0.00761494 2.74964e-05 0.00996271
0.0100441 0.0012577 -3.82669e-05
0.010036 3.63264e-05 0.00873122
0.0114496 0.00337719 -4.34535e-05
0.00381164 0.0100151 0.00998249
0.0028125 0.0100122 0.00134356
0.00762772 0.0100283 0.00996386
0.0114422 0.00337724 0.00994453
0 0.01 0.005
0.0030012 0.00850043 -1.32527e-05
0.0114562 0.0100398 0.00494999
0 0.01 0.00333333
0 0.00166667 0
0.0114425 4.174e-05 0.00162153
0 0.00166667 0.01
0 0.00833333 0
0.0114578 0.00837637 -4.37056e-05
0.0114379 4.1321e-05 0.00827886
0.0114591 0.0100401 0.00162101
0.0114543 0.0100399 0.00827948
0.00190575 0.0100078 0.00999126
0 0.01 0.00833333
0.00954562 0.0100345 -3.76759e-05
0.00953021 3.45695e-05 -3.62118e-05
0.00952374 3.39918e-05 0.00995308
0.00953837 0.0100341 0.00995433
0 0 0.00833333
0.0114502 0.00837628 0.00994469
0.00190321 7.58247e-06 -8.19802e-06
0 0 0.00166667
0.00381456 0.010016 -1.65631e-05
0.0114398 0.00170853 0.00994422
0.011447 0.00170917 -4.33267e-05
0.00190202 7.59647e-06 0.00999114
0.00190654 0.0100084 -8.73868e-06
0 0.01 0.00166667
0.0114532 0.0100397 0.00994511
0 0 0.01
0.011461 0.0100404 -4.41117e-05
0.0114371 4.09541e-05 0.00994384
0 0.01 0.01
0.0114443 4.16694e-05 -4.31254e-05
0 0.01 0
0 0 0
0.00572334 0.0100226 -2.37625e-05
0.0038047 1.40484e-05 0.0099817
0 0.00833333 0.01

CELLS 343 686
1 0
1 1
1 2
1 3
1 4
1 5
1 6
1 7
1 8
1 9
1 10
1 11
1 12
1 13
1 14
1 15
1 16
1 17
1 18
1 19
1 20
1 21
1 22
1 23
1 24
1 25
1 26
1 27
1 28
1 29
1 30
1 31
1 32
1 33
1 34
1 35
1 36
1 37
1 38
1 39
1 40
1 41
1 42
1 43
1 44
1 45
1 46
1 47
1 48
1 49
1 50
1 51
1 52
1 53
1 54
1 55
1 56
1 57
1 58
1 59
1 60
1 61
1 62
1 63
1 64
1 65
1 66
1 67
1 68
1 69
1 70
1 71
1 72
1 73
1 74
1 75
1 76
1 77
1 78
1 79
1 80
1 81
1 82
1 83
1 84
1 85
1 86
1 87
1 88
1 89
1 90
1 91
1 92
1 93
1 94
1 95
1 96
1 97
1 98
1 99
1 100
1 101
1 102
1 103
1 104
1 105
1 106
1 107
1 108
1 109
1 110
1 111
1 112
1 113
1 114
1 115
1 116
1 117
1 118
1 119
1 120
1 121
1 122
1 123
1 124
1 125
1 126
1 127
1 128
1 129
1 130
1 131
1 132
1 133
1 134
1 135
1 136
1 137
1 138
1 139
1 140
1 141
1 142
1 143
1 144
1 145
1 146
1 147
1 148
1 149
1 150
1 151
1 152
1 153
1 154
1 155
1 156
1 157
1 158
1 159
1 160
1 161
1 162
1 163
1 164
1 165
1 166
1 167
1 168
1 169
1 170
1 171
1 172
1 173
1 174
1 175
1 176
1 177
1 178
1 179
1 180
1 181
1 182
1 183
1 184
1 185
1 186
1 187
1 188
1 189
1 190
1 191
1 192
1 193
1 194
1 195
1 196
1 197
1 198
1 199
1 200
1 201
1 202
1 203
1 204
1 205
1 206
1 207
1 208
1 209
1 210
1 211
1 212
1 213
1 214
1 215
1 216
1 217
1 218
1 219
1 220
1 221
1 222
1 223
1 224
1 225
1 226
1 227
1 228
1 229
1 230
1 231
1 232
1 233
1 234
1 235
1 236
1 237
1 238
1 239
1 240
1 241
1 242
1 243
1 244
1 245
1 246
1 247
1 248
1 249
1 250
1 251
1 252
1 253
1 254
1 255
1 256
1 257
1 258
1 259
1 260
1 261
1 262
1 263
1 264
1 265
1 266
1 267
1 268
1 269
1 270
1 271
1 272
1 273
1 274
1 275
1 276
1 277
1 278
1 279
1 280
1 281
1 282
1 283
1 284
1 285
1 286
1 287
1 288
1 289
1 290
1 291
1 292
1 293
1 294
1 295
1 296
1 297
1 298
1 299
1 300
1 301
1 302
1 303
1 304
1 305
1 306
1 307
1 308
1 309
1 310
1 311
1 312
1 313
1 314
1 315
1 316
1 317
1 318
1 319
1 320
1 321
1 322
1 323
1 324
1 325
1 326
1 327
1 328
1 329
1 330
1 331
1 332
1 333
1 334
1 335
1 336
1 337
1 338
1 339
1 340
1 341
1 342

CELL_TYPES 343
1
1
1
1
1
1
1
1
1
1
1
1
1
1
1
1
1
1
1
1
1
1
1
1
1
1
1
1
1
1
1
1
1
1
1
1
1
1
1
1
1
1
1
1
1
1
1
1
1
1
1
1
1
1
1
1
1
1
1
1
1
1
1
1
1
1
1
1
1
1
1
1
1
1
1
1
1
1
1
1
1
1
1
1
1
1
1
1
1
1
1
1
1
1
1
1
1
1
1
1
1
1
1
1
1
1
1
1
1
1
1
1
1
1
1
1
1
1
1
1
1
1
1
1
1
1
1
1
1
1
1
1
1
1
1
1
1
1
1
1
1
1
1
1
1
1
1
1
1
1
1
1
1
1
1
1
1
1
1
1
1
1
1
1
1
1
1
1
1
1
1
1
1
1
1
1
1
1
1
1
1
1
1
1
1
1
1
1
1
1
1
1
1
1
1
1
1
1
1
1
1
1
1
1
1
1
1
1
1
1
1
1
1
1
1
1
1
1
1
1
1
1
1
1
1
1
1
1
1
1
1
1
1
1
1
1
1
1
1
1
1
1
1
1
1
1
1
1
1
1
1
1
1
1
1
1
1
1
1
1
1
1
1
1
1
1
1
1
1
1
1
1
1
1
1
1
1
1
1
1
1
1
1
1
1
1
1
1
1
1
1
1
1
1
1
1
1
1
1
1
1
1
1
1
1
1
1
1
1
1
1
1
1
1
1
1
1
1
1
1
1
1
1
1
1
1
1
1
1
1
1
1
1
1
1
1
1
1
1
1
1
1
1

POINT_DATA 343
FIELD FieldData 8

NodeID_(#) 1 343 int
0
1
2
3
4
5
6
7
8
9
10
11
12
13
14
15
16
17
18
19
20
21
22
23
24
25
26
27
28
29
30
31
32
33
34
35
36
37
38
39
40
41
42
43
44
45
46
47
48
49
50
51
52
53
54
55
56
57
58
59
60
61
62
63
64
65
66
67
68
69
70
71
72
73
74
75
76
77
78
79
80
81
82
83
84
85
86
87
88
89
90
91
92
93
94
95
96
97
98
99
100
101
102
103
104
105
106
107
108
109
110
111
112
113
114
115
116
117
118
119
120
121
122
123
124
125
126
127
128
129
130
131
132
133
134
135
136
137
138
139
140
141
142
143
144
145
146
147
148
149
150
151
152
153
154
155
156
157
158
159
160
161
162
163
164
165
166
167
168
169
170
171
172
173
174
175
176
177
178
179
180
181
182
183
184
185
186
187
188
189
190
191
192
193
194
195
196
197
198
199
200
201
202
203
204
205
206
207
208
209
210
211
212
213
214
215
216
217
218
219
220
221
222
223
224
225
226
227
228
229
230
231
232
233
234
235
236
237
238
239
240
241
242
243
244
245
246
247
248
249
250
251
252
253
254
255
256
257
258
259
260
261
262
263
264
265
266
267
268
269
270
271
272
273
274
275
276
277
278
279
280
281
282
283
284
285
286
287
288
289
290
291
292
293
294
295
296
297
298
299
300
301
302
303
304
305
306
307
308
309
310
311
312
313
314
315
316
317
318
319
320
321
322
323
324
325
326
327
328
329
330
331
332
333
334
335
336
337
338
339
340
341
342

Component_(#) 1 343 int
0
0
0
0
0
0
0
0
0
0
0
0
0
0
0
0
0
0
0
0
0
0
0
0
0
0
0
0
0
0
0
0
0
0
0
0
0
0
0
0
0
0
0
0
0
0
0
0
0
0
0
0
0
0
0
0
0
0
0
0
0
0
0
0
0
0
0
0
0
0
0
0
0
0
0
0
0
0
0
0
0
0
0
0
0
0
0
0
0
0
0
0
0
0
0
0
0
0
0
0
0
0
0
0
0
0
0
0
0
0
0
0
0
0
0
0
0
0
0
0
0
0
0
0
0
0
0
0
0
0
0
0
0
0
0
0
0
0
0
0
0
0
0
0
0
0
0
0
0
0
0
0
0
0
0
0
0
0
0
0
0
0
0
0
0
0
0
0
0
0
0
0
0
0
0
0
0
0
0
0
0
0
0
0
0
0
0
0
0
0
0
0
0
0
0
0
0
0
0
0
0
0
0
0
0
0
0
0
0
0
0
0
0
0
0
0
0
0
0
0
0
0
0
0
0
0
0
0
0
0
0
0
0
0
0
0
0
0
0
0
0
0
0
0
0
0
0
0
0
0
0
0
0
0
0
0
0
0
0
0
0
0
0
0
0
0
0
0
0
0
0
0
0
0
0
0
0
0
0
0
0
0
0
0
0
0
0
0
0
0
0
0
0
0
0
0
0
0
0
0
0
0
0
0
0
0
0
0
0
0
0
0
0
0
0
0
0
0
0
0
0
0
0
0
0
0
0
0
0
0
0
0
0
0
0
0
0
0
0
0
0
0
0

NodalMass_(kg) 1 343 double
3.15563e-06
1.41304e-05
2.20912e-06
1.71484e-05
8.42e-06
9.09306e-06
9.93033e-06
7.52198e-06
6.81096e-06
5.58223e-06
3.10888e-06
1.07575e-05
4.87011e-06
1.64955e-05
3.0246e-06
8.05984e-06
6.703e-06
1.0877e-05
4.18978e-06
8.16106e-06
6.14143e-06
1.17902e-05
2.23114e-06
4.25176e-06
1.09915e-05
7.41467e-06
4.21871e-06
3.92484e-06
3.08766e-06
1.31268e-05
7.72627e-06
1.65404e-05
1.19037e-05
7.29666e-06
3.81683e-06
1.11001e-05
3.81317e-06
1.39137e-05
6.37414e-06
8.00975e-06
7.6712e-06
1.18847e-05
1.6399e-05
2.78633e-06
8.93599e-06
2.58087e-06
7.57362e-06
4.23241e-06
1.31286e-05
3.80168e-06
2.7746e-06
7.16776e-06
1.21307e-05
5.11765e-06
8.19728e-06
4.58094e-06
2.79503e-06
3.26126e-06
4.12443e-06
2.11915e-06
3.35177e-06
3.61669e-06
1.56838e-05
7.33679e-06
8.24695e-06
5.00369e-06
2.82625e-06
7.20276e-06
3.26815e-06
4.18751e-06
2.02785e-06
2.42152e-06
3.11835e-06
5.97459e-06
5.87101e-06
4.09374e-06
5.45463e-06
2.28825e-06
4.49759e-06
4.38192e-06
4.50892e-06
4.39234e-06
4.27273e-06
5.32031e-06
1.53201e-06
2.38869e-06
2.02885e-06
4.38798e-06
3.17972e-06
3.14298e-06
4.61567e-06
5.87645e-06
8.18088e-06
2.48341e-06
1.53815e-05
3.49683e-06
7.35227e-06
2.01314e-06
2.0408e-06
7.98183e-06
4.41293e-06
7.1389e-06
1.20123e-06
5.03343e-06
1.61257e-06
4.12601e-06
8.73748e-06
4.37849e-06
7.97173e-06
2.13557e-06
3.38137e-06
9.48623e-06
7.40262e-06
1.80226e-06
2.10222e-06
7.98889e-06
1.87983e-06
7.44814e-06
4.19782e-06
2.37156e-06
4.31705e-06
6.06441e-06
4.30905e-06
2.16843e-06
1.8986e-06
1.81294e-06
3.89762e-06
2.44299e-06
1.65628e-06
8.01374e-06
1.64513e-06
2.3931e-06
3.01363e-06
2.99431e-06
1.36541e-06
1.87293e-06
2.09622e-06
1.94762e-06
1.87618e-06
6.37913e-06
4.58628e-06
2.02767e-06
1.61999e-06
2.41284e-06
3.8865e-06
4.44973e-06
2.29839e-06
1.17349e-05
3.11811e-06
1.354e-06
3.45063e-06
1.81846e-06
2.9382e-06
1.37381e-06
2.41464e-06
2.10451e-06
2.63927e-06
2.14166e-06
1.7943e-06
3.19976e-06
1.36989e-06
2.43489e-06
2.08158e-06
1.3601e-06
2.17203e-06
1.89924e-06
3.16996e-06
2.6119e-06
2.37677e-06
1.60225e-06
1.90684e-06
5.49206e-06
1.87878e-06
3.14313e-06
2.97301e-06
1.18454e-06
1.89263e-06
2.04166e-06
2.73572e-06
2.42405e-06
3.23083e-06
3.19752e-06
3.2142e-06
1.94492e-06
1.61196e-06
1.86876e-06
3.22435e-06
2.1114e-06
2.96917e-06
6.15288e-06
2.3097e-06
2.39729e-06
2.38029e-06
2.64508e-06
1.66557e-06
1.82377e-06
2.06583e-06
5.73271e-06
2.08467e-06
2.18324e-06
2.43522e-06
3.1188e-06
3.17316e-06
2.05447e-06
1.9592e-06
3.05718e-06
6.44327e-06
2.08796e-06
2.72615e-06
2.15709e-06
1.86812e-06
2.0028e-06
2.10999e-06
2.88994e-06
2.3222e-06
2.3979e-06
1.97629e-06
6.4127e-06
2.16225e-06
3.29198e-06
2.10223e-06
2.66566e-06
1.94415e-06
2.91865e-06
2.58116e-06
2.11703e-06
2.09534e-06
1.91719e-06
7.06046e-06
2.25203e-06
2.06378e-06
6.28159e-06
2.12147e-06
2.90924e-06
2.12921e-06
6.4487e-06
1.41701e-06
2.0682e-06
6.58062e-06
2.52584e-06
2.39732e-06
7.42191e-07
2.22368e-06
7.06751e-07
7.00657e-07
8.93749e-07
2.53536e-06
2.26535e-06
1.33607e-06
7.84725e-07
2.32303e-06
6.06694e-07
6.68276e-07
6.84307e-07
2.51242e-06
2.31629e-06
7.8367e-07
6.80839e-07
6.22692e-06
6.7471e-07
6.65305e-07
7.01158e-07
1.8232e-06
1.90695e-06
6.86722e-07
7.04792e-07
1.86445e-06
2.28572e-06
6.8045e-07
7.16005e-07
1.82373e-06
6.01079e-07
2.02791e-06
7.4579e-07
5.74423e-07
1.80052e-06
1.454e-06
2.2702e-06
1.80636e-06
2.15356e-06
1.79089e-06
1.79456e-06
6.8231e-07
2.24737e-06
1.45239e-06
1.79556e-06
6.97875e-07
6.24265e-07
6.62717e-07
1.44627e-06
1.40138e-06
2.15258e-06
1.82851e-06
1.3994e-06
1.43932e-06
2.19226e-06
6.97732e-07
1.77726e-06
1.79162e-06
6.54258e-07
7.3397e-07
2.34895e-06
7.10392e-07
6.56982e-07
6.26314e-07
2.18926e-06
6.12493e-07
6.03901e-07
5.92831e-07
5.12031e-07
5.11667e-07
4.9467e-07
4.97016e-07
4.96269e-07
5.33079e-07
4.94191e-07
4.97855e-07
4.86862e-07
4.90626e-07
4.94649e-07
4.94954e-07
4.91922e-07
4.89615e-07
4.96354e-07
4.95189e-07
4.82188e-07
1.10854e-06
5.3299e-07
5.44763e-07
5.36655e-07
5.15417e-07
5.01772e-07
5.53774e-07
5.53774e-07
5.53774e-07
5.53774e-07
5.53774e-07
5.53774e-07
5.50785e-07
5.50785e-07
7.45291e-07
7.11668e-07
4.9897e-07

NodalForce_(N) 3 343 double
8.5385e-06 -8.81682e-07 -3.52171e-07
7.6915e-05 -9.47314e-06 -1.40868e-06
0.000318352 0.000162337 6.76157e-06
6.20988e-05 -9.37973e-06 3.68297e-06
7.1801e-05 -3.25424e-05 -1.80805e-06
9.42393e-05 -3.04538e-05 -1.56716e-06
0.000150901 -7.58302e-05 -8.25918e-06
9.85459e-05 -3.95257e-05 -6.82133e-06
8.26364e-05 -4.1274e-05 3.64798e-07
6.36036e-05 -1.73698e-05 -2.49653e-06
1.7115e-05 -3.25168e-06 3.49875e-06
9.06543e-05 -3.29395e-05 8.42765e-06
2.4095e-05 -7.95037e-06 5.89437e-06
6.07212e-05 2.37971e-06 2.8606e-06
2.14711e-05 -3.81292e-06 2.12771e-06
0.000136091 -4.55793e-05 -5.57345e-06
0.000103597 -3.48696e-05 -4.98904e-06
4.55446e-05 -5.24809e-06 1.12346e-06
-0.00029346 0.000311657 -0.000154536
2.81421e-05 -1.34055e-06 -6.69022e-07
7.06312e-05 -4.25238e-05 -5.35192e-06
0.000135707 -9.90001e-05 -6.73403e-06
-0.00052662 -0.00076529 -0.000426164
2.28909e-05 -1.93152e-05 1.2871e-06
8.13458e-05 -5.08675e-05 7.19015e-07
5.60169e-05 -1.95348e-05 -1.84158e-06
7.65231e-06 -2.81749e-07 1.31283e-06
1.49153e-05 -1.67561e-05 3.96494e-06
2.08685e-05 -4.45787e-06 -2.48236e-06
7.96246e-05 -6.40987e-06 -5.50295e-06
7.91838e-05 -1.92522e-05 -7.74172e-06
0.000344718 -0.000106438 -2.49273e-05
0.00018961 -9.1908e-05 -8.47551e-07
0.00013288 -6.43735e-05 -6.49937e-06
8.92191e-05 -4.69561e-05 -1.08012e-05
0.000216074 -8.07351e-05 -1.44574e-05
9.153e-05 -3.50659e-05 -1.24051e-05
0.000275004 -0.000131982 -4.81605e-05
4.36433e-05 -8.33118e-06 -2.50088e-07
7.04598e-05 -1.48852e-05 1.78304e-06
4.68812e-05 -1.51214e-05 2.26221e-06
0.000171689 -2.60269e-05 -1.36752e-05
0.000100258 1.68109e-06 -1.11842e-05
2.73688e-05 -5.22232e-07 -4.04981e-06
0.000109723 -1.42148e-05 -1.00531e-05
-2.62821e-05 0.000324151 -6.05072e-05
3.38673e-05 -1.90696e-06 -2.01326e-06
-0.000204369 0.000221813 2.93965e-05
7.74496e-05 -1.38089e-06 -4.20449e-06
1.28061e-05 9.77045e-07 -6.32829e-07
5.03547e-05 -1.16892e-05 -3.36636e-06
0.000105718 -2.71837e-05 -4.00611e-06
7.54851e-05 -2.8077e-06 -7.1605e-06
4.3867e-05 -2.70393e-06 -3.82515e-06
3.47909e-05 -5.41877e-07 -1.8481e-06
8.7541e-05 -5.1896e-05 -2.67645e-06
1.40672e-05 2.14973e-05 0.000120204
1.34994e-05 -2.12224e-06 -1.0139e-06
-0.000429456 4.45086e-05 -0.000314883
4.50007e-05 -2.37049e-05 -2.4987e-06
1.8865e-05 -4.62972e-07 6.03883e-07
4.30396e-05 -4.88381e-05 -2.95713e-06
0.000169338 -0.000164779 -9.92289e-06
0.000102173 -6.93727e-05 -8.58782e-06
4.59887e-05 -1.95481e-05 2.68055e-06
2.59505e-05 1.1219e-06 -3.29871e-06
9.58873e-06 -1.73793e-06 1.72653e-06
8.80479e-05 -3.02901e-05 9.53579e-07
6.86986e-05 -3.96766e-05 -6.66129e-06
3.58714e-05 -4.55535e-05 1.15584e-06
1.21317e-05 -5.023e-06 -1.34064e-07
9.14242e-06 2.0967e-07 1.22291e-06
8.51884e-06 -5.96594e-06 1.91441e-06
6.6616e-05 -1.37532e-05 -2.0126e-06
3.67976e-05 -8.0208e-06 5.11602e-07
-9.00928e-05 0.000248014 8.32067e-05
5.11458e-05 -1.79429e-05 -1.66573e-06
7.64894e-06 -7.97474e-07 -2.82121e-07
7.6201e-05 -8.68785e-06 -7.76387e-06
8.34479e-05 -1.10043e-05 -1.07327e-05
6.23857e-05 -4.33845e-06 -8.22804e-06
5.49018e-05 -2.62055e-06 -6.81644e-06
9.89714e-05 -4.84331e-05 -7.99499e-06
4.65752e-05 -6.74823e-06 -2.57271e-06
-0.000303869 -0.000199151 0.000106114
9.53146e-06 -6.15689e-07 -6.84597e-07
-0.000161891 -0.000247019 0.000264656
-0.000592514 -0.000285939 5.84673e-05
-0.000221043 0.000233103 2.70385e-05
1.76654e-05 -4.42418e-06 -9.68285e-07
1.85672e-05 1.80221e-06 -1.39722e-06
7.95309e-05 -1.7244e-05 -4.16005e-06
7.98168e-05 -4.24443e-06 -5.72768e-06
2.69978e-05 -1.17844e-05 3.18778e-06
0.000177817 -0.000114476 2.10643e-05
2.37564e-05 -2.90572e-05 1.68603e-06
6.10482e-05 -4.38343e-05 -1.69391e-06
2.80033e-05 -2.63988e-05 -3.11452e-06
5.98549e-05 0.000207717 0.000118492
0.000144113 -3.6448e-05 -9.9613e-06
3.03535e-05 -3.36401e-05 9.10476e-07
7.41326e-05 -4.20779e-05 -5.56267e-06
1.31032e-05 -1.12956e-06 -1.44432e-06
0.00012166 -4.06634e-05 -1.25914e-05
6.21511e-06 -3.28195e-06 2.07422e-07
2.15584e-05 -3.0723e-05 4.63624e-06
0.000155048 -4.96859e-05 -1.53209e-05
3.90833e-05 -4.29175e-05 4.05172e-06
7.24031e-05 -3.99089e-05 3.08483e-06
5.47785e-06 8.637e-07 -1.91665e-07
5.52069e-05 -2.8846e-05 -1.2134e-05
0.000136812 -4.18853e-05 -1.68834e-05
0.00010072 -3.92756e-05 -1.34668e-05
-0.000429978 -0.000191678 -0.000303871
2.39249e-05 -3.03104e-05 -2.06461e-06
3.11176e-05 -5.20214e-07 -4.96996e-07
4.21555e-05 -2.49429e-05 -7.2852e-06
0.000134615 -6.80066e-05 -1.07322e-05
7.86784e-05 -2.6594e-05 -1.65484e-05
1.80167e-05 -1.48121e-05 3.76563e-06
5.22737e-05 -5.36336e-05 2.03909e-07
8.63079e-05 -5.59105e-05 -2.89679e-06
1.00307e-05 1.24863e-07 1.05388e-06
7.79516e-05 5.71476e-05 6.39651e-05
4.44567e-06 1.13414e-07 2.09583e-07
3.76028e-05 -2.13294e-05 -2.39652e-06
6.0858e-05 -2.67939e-05 -1.37782e-05
-0.000393415 -0.0001222 2.53531e-05
7.208e-06 5.33366e-07 -5.99456e-07
0.000105009 -2.10668e-05 -9.22765e-06
3.97565e-05 -1.14594e-05 -4.54499e-06
5.60624e-05 -2.44226e-05 -4.63612e-06
2.38052e-05 -8.21865e-06 4.70172e-06
4.0816e-05 -1.57814e-05 1.75157e-06
-1.44455e-05 -0.000290654 1.00758e-05
8.40397e-06 3.8748e-07 -9.2293e-07
-0.000541516 0.000192986 4.66717e-05
1.56947e-05 -2.36539e-05 9.53289e-07
3.77655e-05 -2.38064e-05 -5.86602e-06
0.000114238 -6.30682e-05 -1.78342e-05
8.28816e-05 -3.36186e-05 -1.7285e-06
1.95778e-05 -1.03994e-05 4.66876e-06
1.47104e-05 -1.43557e-05 3.52285e-06
2.90417e-05 -2.7756e-05 3.3436e-06
-0.000366885 5.69567e-05 3.83934e-05
2.96991e-05 -1.66885e-05 9.78083e-06
9.18499e-06 -8.33102e-06 1.88431e-06
0.000174115 -0.000102623 -2.25804e-05
4.95683e-05 -3.96689e-05 -7.14176e-06
1.94503e-05 -2.15659e-06 -2.43264e-06
3.64756e-05 -3.72352e-06 -4.05606e-06
3.08204e-06 -3.28282e-07 5.34885e-07
-0.000723676 -0.000277697 -0.000153267
2.6127e-05 -1.64457e-05 -1.02079e-06
5.10662e-05 -1.71847e-05 -8.16087e-06
4.37678e-05 -8.63888e-06 -4.63859e-06
-0.000245859 -0.000237647 8.82573e-05
-0.000539215 -5.37169e-05 0.000195994
2.791e-05 -7.85956e-06 -7.39112e-07
4.70538e-05 -3.86628e-05 3.30752e-07
6.73256e-06 -3.15491e-06 1.42954e-06
2.07161e-05 -4.39795e-09 -2.65996e-06
1.8287e-05 -2.31359e-05 -9.83694e-08
2.02039e-05 -3.27126e-06 -1.34747e-06
4.73545e-05 -2.23971e-05 -3.28527e-06
3.98298e-05 -1.22387e-05 -2.88777e-06
3.30161e-05 -2.78021e-05 -3.1865e-06
2.04738e-05 -5.46734e-06 -2.07348e-06
4.48714e-05 -2.43349e-05 -1.14404e-05
3.45805e-05 -1.48183e-05 -8.1467e-06
2.59554e-05 -1.13331e-05 -5.12756e-06
8.87857e-05 -3.70067e-05 -9.28324e-06
1.28882e-05 -2.00884e-05 1.83951e-06
2.20182e-05 3.92587e-07 -8.20583e-07
3.16949e-05 -2.23485e-06 -1.59281e-06
1.0543e-05 -1.27937e-06 6.25328e-08
4.21563e-05 -8.69533e-06 -5.50999e-06
6.61902e-06 -8.3913e-07 1.10881e-06
5.047e-05 -3.42174e-05 -5.90888e-06
-5.88482e-05 -0.000225984 -6.72761e-05
5.25959e-05 -3.70816e-05 2.15996e-06
4.32386e-05 -3.64403e-05 -7.53961e-06
4.21741e-05 -4.51733e-05 -5.65408e-06
-7.67573e-05 -0.000358993 0.000254947
1.31371e-05 1.61069e-07 -1.39822e-06
1.53522e-05 -1.1596e-05 5.28762e-06
4.08353e-05 -2.36036e-05 5.71157e-06
3.3024e-05 -1.73171e-05 1.70295e-06
5.49285e-05 -1.07621e-05 -5.40706e-06
9.07974e-05 -2.09402e-05 -5.90249e-06
4.28653e-05 -1.00287e-05 -5.00386e-06
5.11411e-05 -1.17889e-05 -5.49994e-06
2.07296e-05 6.91503e-07 -2.04052e-06
2.17887e-05 -8.62917e-06 -1.8253e-06
5.29271e-06 -2.39038e-06 1.30627e-06
6.73049e-06 -2.44182e-06 1.50429e-06
3.14354e-05 -2.79068e-05 -5.78145e-06
6.33648e-05 -1.45212e-05 -7.47536e-06
3.42361e-05 -2.60098e-05 -3.12597e-06
2.99307e-05 -1.63911e-05 -5.56122e-06
5.7741e-05 -2.53429e-05 -1.12614e-05
-0.000405412 -6.83158e-05 5.44518e-06
1.47876e-05 1.47865e-07 -1.72237e-06
-0.000502351 0.000254555 9.874e-05
2.41464e-05 -8.05364e-06 -4.62225e-06
4.50735e-05 -1.05276e-05 -7.08443e-06
6.85758e-05 -2.28065e-05 -4.78638e-06
2.68973e-05 -1.80608e-05 -4.28743e-06
1.62365e-05 -1.47894e-05 1.61078e-06
1.38343e-05 -1.01515e-05 2.06753e-06
8.85063e-06 -8.90932e-09 -8.34817e-07
2.28211e-05 -2.53434e-05 -2.38295e-06
3.60443e-05 -2.55024e-05 -5.73819e-07
6.25915e-05 -1.79624e-05 -6.82894e-06
2.38667e-05 -6.82095e-06 1.57481e-06
5.16367e-06 -4.20838e-06 1.67611e-06
2.71117e-05 -2.20793e-05 3.25168e-06
3.70886e-05 -3.22635e-06 -1.19369e-06
2.28674e-05 -1.31182e-05 -2.91636e-06
5.24441e-05 -3.50654e-05 -1.15681e-05
3.73642e-05 -5.5761e-06 -4.34685e-06
4.44194e-05 -3.29146e-05 -2.42986e-06
3.49216e-05 -9.25592e-06 -5.21689e-06
2.14284e-05 -2.19726e-05 1.80698e-06
2.65271e-05 -1.95425e-06 -3.19885e-06
-0.000438516 -0.000206706 6.87978e-05
2.66771e-05 -1.53369e-06 -2.36885e-06
1.22964e-05 -7.10405e-06 2.63357e-06
6.07135e-05 -1.10459e-05 -1.82871e-06
3.35329e-05 -4.91586e-06 -3.56916e-06
9.41475e-06 -6.32385e-06 1.71393e-06
5.61254e-05 -7.98665e-06 -2.50291e-06
-0.000365038 -0.000189442 3.38544e-05
-0.00059375 -0.000178084 6.94272e-05
2.31442e-05 -9.47493e-06 -3.51549e-06
8.21402e-05 -2.13554e-05 -5.1756e-06
7.15535e-06 -8.29769e-06 1.19342e-06
3.89267e-05 -2.54531e-05 -2.79476e-06
6.5211e-05 -9.29121e-06 -3.5526e-06
3.1682e-05 -6.72964e-06 -3.73298e-07
4.29003e-05 -3.14445e-05 -8.70768e-06
3.41585e-05 0.000242441 0.000203977
4.13055e-05 -2.59375e-05 -1.07181e-05
2.09477e-06 -2.59147e-06 6.08555e-07
0.00017331 -0.000360691 -0.000193253
1.44538e-05 -7.22882e-07 -2.11166e-06
1.96312e-05 -2.13618e-05 -2.47624e-05
4.62831e-05 -3.04279e-05 -1.09426e-05
2.46746e-05 -1.88827e-05 -6.71869e-06
-0.000116097 -0.000471611 1.05346e-05
1.82542e-05 -1.19873e-05 -7.25872e-07
-6.0838e-05 0.000267392 5.16228e-05
6.16055e-06 -9.72872e-06 -1.1826e-07
1.71933e-05 -6.77195e-06 -1.79826e-06
2.69396e-05 -8.47327e-06 -4.55615e-06
3.30714e-05 -2.9406e-05 -2.43561e-06
3.31164e-06 -5.13031e-06 7.51534e-07
-0.000645266 -0.000575698 0.000191515
4.86402e-05 -1.05214e-05 -1.05093e-06
3.52684e-06 -1.40314e-06 1.23194e-06
6.47869e-06 -8.2122e-06 1.0043e-06
-0.000637688 -0.000589951 0.000233024
4.2432e-05 -2.13148e-05 -1.1126e-05
4.2507e-05 -2.72216e-05 -1.12323e-05
6.56782e-06 -9.21644e-06 3.07605e-07
1.12289e-05 -9.92877e-06 -2.70032e-06
4.46545e-06 -9.92613e-07 -6.54906e-08
3.49252e-05 0.000453201 -0.000407504
-0.000157078 -0.000377888 5.1846e-05
-0.000171246 -0.000423924 4.42171e-05
3.76089e-05 -2.32972e-05 -1.07095e-05
1.48095e-05 -7.35722e-06 -2.52471e-06
3.05423e-05 -5.65983e-06 -3.72197e-06
1.50942e-05 -7.40753e-06 -4.76991e-07
1.77734e-05 9.78609e-05 0.000188046
4.12708e-05 0.000345208 2.35659e-05
3.00504e-06 2.30553e-08 1.31415e-07
4.65274e-06 5.03537e-07 9.32869e-08
4.39813e-05 -1.1479e-05 -5.63724e-06
8.81646e-06 4.4193e-07 -8.04034e-07
-0.000410081 0.000355612 3.31303e-05
4.25311e-05 -1.6356e-05 -4.30779e-06
1.31921e-05 -5.67842e-06 -3.30203e-06
2.40051e-05 -3.51157e-05 -1.31436e-06