# vtk DataFile Version 4.2
vtk output
ASCII
DATASET UNSTRUCTURED_GRID

POINTS 343 double
0.00112198 0.00419497 7.69298e-08
0.00217016 0.0049827 0.0021752
0 0.00419538 0.00112517
0.00192981 0.00195462 0.00194204
0.00517038 0.00240845 0.00503089
0.00517306 0.00383143 0.00639604
0.00762171 0.00477846 0.00499565
0.00622284 0.00485241 0.00368973
0.00683801 0.00329121 0.00691116
0.00499035 0.00499375 0.00499857
0.00418408 0.0011194 0.00999775
0.00528389 0.00208201 0.00790225
0.00419376 -6.09162e-06 0.00831595
0.00201313 0.00200263 0.00803307
0.00428923 0.002534 0.00999771
0.00695598 0.00644921 0.00694401
0.00641206 0.00618449 0.0051808
0.00226084 0.00218485 0.00514591
0 0.00143586 0.00417514
0.0015944 0.0034662 0.00403699
0.00683613 0.00319657 0.00315897
0.00774663 0.00221646 0.0050605
0 0.00270918 0.00154168
0.00415703 0.00142979 -7.90999e-07
0.0050072 0.00218944 0.00219649
0.00396097 0.00352753 0.00160215
0.00134575 -5.63543e-07 0.00405994
0.00418374 -6.54702e-06 0.0016872
0.00262376 0.00695191 -2.0261e-07
0.00193693 0.00805282 0.00194477
0.00408492 0.00624873 0.00164412
0.00800185 0.00798918 0.00799321
0.00796644 0.00481882 0.00801828
0.00838698 0.00608309 0.00594378
0.00999353 0.00883023 0.0041864
0.00757361 0.00763854 0.00496041
0.00856076 0.00998366 0.00416234
0.00797038 0.00797428 0.00201236
0.00353693 0.00303718 0.00695887
0.00443918 0.00366289 0.0083226
0.00389382 0.00160152 0.00596833
0.00500482 0.00766956 0.00767502
0.00198938 0.00800805 0.0079895
0.00282601 0.00999768 0.00712684
0.00391488 0.0084003 0.00595709
0 0.00695361 0.00262895
0.00164594 0.00623938 0.00408781
0 0.0040177 0.00850214
0.00231514 0.00498589 0.00766128
0.00143372 0.00417456 0.00999989
0.00717609 0.00712063 0.00999428
0.00611903 0.00597255 0.00841475
0.00205105 0.00794151 0.00474171
0.00304311 0.00694322 0.00646732
0.00158671 0.00607844 0.00592592
0.00998984 0.00578841 0.00830863
0 0.00718191 0.00711644
0.00158347 0.00577355 -1.98491e-08
0 0.00577432 0.00158701
0.00999241 0.00716209 0.00710817
0.0028693 0.00334973 0.00999903
0.00997107 0.00141408 0.00416847
0.00803509 0.00194646 0.0019753
0.00838848 0.00350571 0.00399415
0.00372654 0.00164893 0.00412773
0.00150856 0.00999969 0.00581496
0.00281157 -2.98982e-06 0.00712732
0.00611193 0.00417334 0.00837324
0.00998871 0.00725413 0.00418871
0.00853086 -1.80841e-05 0.00416314
0.00333985 0.00287025 -4.61877e-07
0.00270267 0.00153934 0.00999911
0.00281935 -3.37509e-06 0.0028317
0.00479865 0.00519511 0.00755267
0.00315782 0.00314674 0.00316696
0 0.00849157 0.00581511
0.0048642 0.00367073 0.00378497
0.00153643 0.00270872 -1.15398e-08
0.00580022 0.00831775 0.00999583
0.0059831 0.0099912 0.00850226
0.00421284 0.00999505 0.00831598
0.00401819 0.00849928 0.0099977
0.00999463 0.00847153 0.0058073
0.00314591 0.00683389 0.00315046
0 0.00748929 0.00137438
0.00137227 0.00748897 1.09429e-08
0 0.00287343 0.00335182
0 0.00580816 0.00831736
0 0.00429792 0.00253898
0.0025317 0.0042962 -1.66189e-07
0.00143425 0.00581922 0.00999989
0.00517464 0.00646985 0.00639849
0.00360371 0.00650984 0.00823291
0.00693716 0.00261574 0.00999476
0.00800365 0.00194332 0.00802993
0.00694329 -1.36085e-05 0.00307907
0.00600127 0.00165464 0.00361069
0.00997426 0.00285236 0.0033454
0 0.00140616 0.00256446
0.00637123 0.0082188 0.00641785
0.00579497 0.00142545 -1.60239e-06
0.00601992 0.003543 0.00160102
0.00315515 0.00999708 0.00582462
0.00855764 0.00998386 0.00582733
0.00255314 0.00140352 -1.97465e-07
0.00595035 -1.09032e-05 0.00149235
0.00627602 0.00827877 0.0036147
0.0085278 -1.79184e-05 0.00582787
0.00618931 0.00166286 0.0063624
0.00140297 0.00256408 0.00999994
0.00710443 0.00717032 -3.18857e-06
0.00516089 0.00768363 0.00216724
0.00593223 0.00608551 0.00159966
0 0.00686719 0.00578184
0.00996884 0.00138417 0.00255839
0.00177242 0.00360999 0.00640772
0.0099904 0.00846657 0.00261703
0.00840033 0.00617407 0.00412784
0.00597603 0.00999061 0.00149139
0.00694654 -1.32637e-05 0.00692262
0.00997331 0.00141389 0.00581229
0.00838042 0.00355763 0.00605539
0.00150246 -6.80226e-07 0.00581512
0 0.0013659 0.00748679
0.00136441 -5.37131e-07 0.00752889
0.00998961 0.00684728 0.00577413
0.00580836 0.00848298 -2.19012e-06
0 0.0075208 0.00859127
0.00136536 0.00748652 0.00999979
0.00422807 0.00820123 0.00362736
0.00859271 0.00998377 0.00750552
0.00999745 0.00861031 0.00751782
0.00576032 0.00157773 0.00999607
0.00724931 0.00417627 0.00999433
0 0.0057735 0.00666667
0.00136982 0.00999962 0.00752888
0 0.00863025 0.00752641
0.00855535 -1.84528e-05 0.00250301
0.00998568 0.00693337 0.00262239
0.00844539 0.00632659 0.0021583
0.00850278 0.00580868 0.00999275
0.00747174 0.00136025 0.00999399
0.00856275 -1.8038e-05 0.00750576
0.00997532 0.00134438 0.00747858
0 0.00143551 0.00581971
0.00595761 -1.03801e-05 0.00850232
0.00419464 -6.51972e-06 0.00339908
0.00791654 0.00469355 0.00203056
0.00997747 0.00427739 0.00253271
0.00422931 0.00999488 0.00666511
0.00283384 0.00999776 0.00283157
0.00130718 -6.2271e-07 0.00241829
0 0.00727418 0.00419576
0.00998747 0.00575367 0.00665863
0.00697104 0.00998807 0.00307821
0.00750869 0.00862448 0.00999382
0 0.00574334 0.00336387
0 0.0043297 0.00416652
0.00686448 0.00577391 0.00999477
0.00997951 0.00300147 0.00690728
0.00420908 -6.2691e-06 0.00666547
0.00247969 0.009998 0.00861095
0.00745734 0.00135116 -2.9933e-06
0.00577205 0.00665931 0.00999585
0.00999547 0.00750108 0.00858235
0.00860666 0.0075382 0.00999253
0.00689172 0.00301013 -2.52156e-06
0.00335592 0.00574086 -4.26488e-07
0.00751764 0.00861706 -3.75569e-06
0.00751105 0.00998626 0.00138341
0.00577121 0.00685929 -2.10186e-06
0.00696427 0.00635996 0.00303019
0.00748249 -1.54748e-05 0.00138452
0.0028818 0.00499752 0.0099989
0.00432738 0.00582949 0.00999744
0.00432399 0.00416246 0.00999748
0.00751977 0.00998682 0.00861021
0.00246714 -2.45735e-06 0.00861118
0.00998284 0.00572324 0.00335726
0 0.00302218 0.00691532
0.00998461 0.00399754 0.00849342
0.00847788 0.00400133 -4.09572e-06
0.00997144 0.00268781 0.00153588
0 0.00244495 0.00857025
0.00244633 0.0085686 0.00999898
0.00749127 -1.4892e-05 0.00861023
0.00847146 0.00260764 0.00999279
0.00883961 0.00417723 0.00999231
0.00567201 0.00999169 0.00583076
0.00518259 0.00757726 0.00503053
0.00564265 0.00999164 0.00421299
0.0069742 0.00998837 0.00692227
0.0030216 0.00691361 0.00999861
0.00415418 0.00432549 -7.91338e-07
0.00282269 -3.43353e-06 0.00440439
0.00313954 -3.81962e-06 0.00582507
0.00997539 0.00417459 0.00111932
0.00363451 0.00833395 0.00158743
0.00997972 0.0043093 0.00415967
0.00665135 0.0057632 -2.53923e-06
0.00858539 0.00998336 0.00250194
0 0.00848692 0.00262374
0.00135128 0.0099997 0.00405983
0 0.00885053 0.00419359
0.00418962 0.00884539 -1.10694e-06
0.00420366 0.00999475 0.00168656
0.00498763 0.00478565 0.00237743
0.00719953 0.00450943 -2.88745e-06
0.00561823 -9.97678e-06 0.00421375
0.00564767 -9.88687e-06 0.00583121
0.00131256 0.00999971 0.00241806
0.00854119 0.00242768 -4.02376e-06
0.00998443 0.00450165 0.00721135
0.0071152 0.00998786 0.00499626
0.00573384 0.00335607 0.0099961
0.00244598 -2.79496e-06 0.00135643
0.00997995 0.00242401 0.00856159
0.00239136 0.00479002 0.00499966
0.00581605 0.00432176 -1.80765e-06
0.00829887 0.00579278 -4.20235e-06
0.00548214 0.00999228 0.00721765
0.00998196 0.00430987 0.00582574
0.0054017 0.00999209 0.00277362
0.00708721 -1.38035e-05 0.00499693
0.00283679 0.00999776 0.00440404
0 0.00452174 0.00721958
0.0045212 0.00721558 0.00999723
0.00545827 -9.23044e-06 0.00721771
0.00359687 0.00507105 0.00359596
0.004253 0.00999485 0.00500697
0.00423226 -6.44782e-06 0.00500762
0.00366598 0.00521403 0.00617378
0 0.005744 0.00499998
0 0.00433013 0.00583333
0.00498823 0.0057383 -1.34393e-06
0.00497781 0.00633358 0.00355237
0.00537777 -9.47742e-06 0.00277441
0.00998508 0.00572407 0.00499266
0.00368664 0.00640496 0.00484324
0.00573853 0.00499293 0.009996
0.00998069 0.00575401 0.00158091
0 0.00666667 0
0.00857749 0.00750475 -4.73255e-06
0.00331591 -5.0349e-06 -7.03271e-09
0 0.01 0.00666667
0.00500597 0.00999318 0.00999684
0 0.00288419 0.00499914
0.00998575 0.00746892 0.00136816
0.00998159 0.00664627 -6.16914e-06
0 0.005 0.01
0.00498082 0.00287729 -1.23579e-06
0 0.005 0
0.0099656 -2.26578e-05 0.00332713
0.0100005 0.00997936 0.00665836
0.0041887 0.00726987 -1.02392e-06
0.00997646 0.0028633 0.00499201
0.00497521 -8.95507e-06 -8.0214e-07
0 0 0.00666667
0.00379051 0.00361339 0.0052256
0.00498399 -8.49312e-06 0.00999651
0.00997006 -2.24129e-05 0.00665889
0 0 0.005
0.00877486 0.00998258 0.00121487
0.00998955 0.00875923 0.00121369
0.00996779 -2.25094e-05 0.00499303
0.00997655 0.00497923 -5.91309e-06
0.00121526 0.0012194 -2.77128e-08
0 0.00122008 0.00122008
0 0.00333333 0.01
0 0.00666667 0.01
0.00876976 0.00876283 -5.0988e-06
0.00999606 0.00997899 0.00332623
0.0042152 0.00999482 0.00339858
0.00999474 0.00664705 0.00999075
0 0.00333333 0
0 0.00122008 0.00877992
0.00121569 -6.74423e-07 0.00877964
0.00121678 0.0012196 0.01
0.00878469 0.00998319 0.00877252
0.00122002 0.00877955 0.00999981
0 0.00877992 0.00877992
0.00999966 0.00875996 0.00877091
0.00666267 0.00998847 -3.29046e-06
0.00996651 0.00119781 0.0012145
0.00122065 0.00999951 0.00877992
0.00878273 0.00876371 0.00999231
0.00998964 0.00498016 0.00999079
0 0 0.00333333
0.00663563 -1.31573e-05 -1.9663e-06
0.00874469 -1.9204e-05 0.00121605
0.00120601 -7.74097e-07 0.00121192
0 0.00877992 0.00122008
0.00121877 0.00877942 5.52082e-08
0.00121111 0.00999958 0.00121136
0.00997655 0.00119841 0.00877107
0.00875981 0.00120202 0.00999231
0.00664683 -1.27345e-05 0.00999451
0.00874682 0.0012014 -4.11005e-06
0.00875461 -1.86714e-05 0.00877247
0.00997152 0.00331212 -5.68669e-06
0.00333779 0.0099964 0.00999858
0.00245876 0.00999823 0.00135602
0.00667368 0.00998923 0.00999498
0.00998457 0.00331295 0.0099908
0 0.01 0.005
0.00262076 0.00848492 -2.49353e-07
0.00999825 0.0099792 0.0049924
0 0.01 0.00333333
0 0.00166667 0
0.00996343 -2.28769e-05 0.0016611
0 0.00166667 0.01
0 0.00833333 0
0.0099868 0.0083126 -6.35825e-06
0.00997229 -2.242e-05 0.00832456
0.00999391 0.0099788 0.00166003
0.0100028 0.00997941 0.00832442
0.00166863 0.00999875 0.00999962
0 0.01 0.00833333
0.00832754 0.00998371 -4.84992e-06
0.00829773 -1.81365e-05 -3.50917e-06
0.00831042 -1.75982e-05 0.00999258
0.00834 0.0099844 0.00999289
0 0 0.00833333
0.00999994 0.00831351 0.00999069
0.00165788 -1.81289e-06 5.48941e-08
0 0 0.00166667
0.00333251 0.00999643 -7.08057e-07
0.00997952 0.00164515 0.00999075
0.00996643 0.00164447 -5.52508e-06
0.0016605 -1.43976e-06 0.00999973
0.00166641 0.00999897 -1.2582e-07
0 0.01 0.00166667
0.0100051 0.00997953 0.00999073
0 0 0.01
0.0099919 0.00997858 -6.64001e-06
0.00997449 -2.25412e-05 0.00999051
0 0.01 0.01
0.00996138 -2.30068e-05 -5.28958e-06
0 0.01 0
0 0 0
0.00499762 0.00999273 -1.82464e-06
0.00332209 -4.58951e-06 0.00999816
0 0.00833333 0.01

CELLS 343 686
1 0
1 1
1 2
1 3
1 4
1 5
1 6
1 7
1 8
1 9
1 10
1 11
1 12
1 13
1 14
1 15
1 16
1 17
1 18
1 19
1 20
1 21
1 22
1 23
1 24
1 25
1 26
1 27
1 28
1 29
1 30
1 31
1 32
1 33
1 34
1 35
1 36
1 37
1 38
1 39
1 40
1 41
1 42
1 43
1 44
1 45
1 46
1 47
1 48
1 49
1 50
1 51
1 52
1 53
1 54
1 55
1 56
1 57
1 58
1 59
1 60
1 61
1 62
1 63
1 64
1 65
1 66
1 67
1 68
1 69
1 70
1 71
1 72
1 73
1 74
1 75
1 76
1 77
1 78
1 79
1 80
1 81
1 82
1 83
1 84
1 85
1 86
1 87
1 88
1 89
1 90
1 91
1 92
1 93
1 94
1 95
1 96
1 97
1 98
1 99
1 100
1 101
1 102
1 103
1 104
1 105
1 106
1 107
1 108
1 109
1 110
1 111
1 112
1 113
1 114
1 115
1 116
1 117
1 118
1 119
1 120
1 121
1 122
1 123
1 124
1 125
1 126
1 127
1 128
1 129
1 130
1 131
1 132
1 133
1 134
1 135
1 136
1 137
1 138
1 139
1 140
1 141
1 142
1 143
1 144
1 145
1 146
1 147
1 148
1 149
1 150
1 151
1 152
1 153
1 154
1 155
1 156
1 157
1 158
1 159
1 160
1 161
1 162
1 163
1 164
1 165
1 166
1 167
1 168
1 169
1 170
1 171
1 172
1 173
1 174
1 175
1 176
1 177
1 178
1 179
1 180
1 181
1 182
1 183
1 184
1 185
1 186
1 187
1 188
1 189
1 190
1 191
1 192
1 193
1 194
1 195
1 196
1 197
1 198
1 199
1 200
1 201
1 202
1 203
1 204
1 205
1 206
1 207
1 208
1 209
1 210
1 211
1 212
1 213
1 214
1 215
1 216
1 217
1 218
1 219
1 220
1 221
1 222
1 223
1 224
1 225
1 226
1 227
1 228
1 229
1 230
1 231
1 232
1 233
1 234
1 235
1 236
1 237
1 238
1 239
1 240
1 241
1 242
1 243
1 244
1 245
1 246
1 247
1 248
1 249
1 250
1 251
1 252
1 253
1 254
1 255
1 256
1 257
1 258
1 259
1 260
1 261
1 262
1 263
1 264
1 265
1 266
1 267
1 268
1 269
1 270
1 271
1 272
1 273
1 274
1 275
1 276
1 277
1 278
1 279
1 280
1 281
1 282
1 283
1 284
1 285
1 286
1 287
1 288
1 289
1 290
1 291
1 292
1 293
1 294
1 295
1 296
1 297
1 298
1 299
1 300
1 301
1 302
1 303
1 304
1 305
1 306
1 307
1 308
1 309
1 310
1 311
1 312
1 313
1 314
1 315
1 316
1 317
1 318
1 319
1 320
1 321
1 322
1 323
1 324
1 325
1 326
1 327
1 328
1 329
1 330
1 331
1 332
1 333
1 334
1 335
1 336
1 337
1 338
1 339
1 340
1 341
1 342

CELL_TYPES 343
1
1
1
1
1
1
1
1
1
1
1
1
1
1
1
1
1
1
1
1
1
1
1
1
1
1
1
1
1
1
1
1
1
1
1
1
1
1
1
1
1
1
1
1
1
1
1
1
1
1
1
1
1
1
1
1
1
1
1
1
1
1
1
1
1
1
1
1
1
1
1
1
1
1
1
1
1
1
1
1
1
1
1
1
1
1
1
1
1
1
1
1
1
1
1
1
1
1
1
1
1
1
1
1
1
1
1
1
1
1
1
1
1
1
1
1
1
1
1
1
1
1
1
1
1
1
1
1
1
1
1
1
1
1
1
1
1
1
1
1
1
1
1
1
1
1
1
1
1
1
1
1
1
1
1
1
1
1
1
1
1
1
1
1
1
1
1
1
1
1
1
1
1
1
1
1
1
1
1
1
1
1
1
1
1
1
1
1
1
1
1
1
1
1
1
1
1
1
1
1
1
1
1
1
1
1
1
1
1
1
1
1
1
1
1
1
1
1
1
1
1
1
1
1
1
1
1
1
1
1
1
1
1
1
1
1
1
1
1
1
1
1
1
1
1
1
1
1
1
1
1
1
1
1
1
1
1
1
1
1
1
1
1
1
1
1
1
1
1
1
1
1
1
1
1
1
1
1
1
1
1
1
1
1
1
1
1
1
1
1
1
1
1
1
1
1
1
1
1
1
1
1
1
1
1
1
1
1
1
1
1
1
1
1
1
1
1
1
1
1
1
1
1
1
1
1
1
1
1
1
1
1
1
1
1
1
1
1
1
1
1
1
1

POINT_DATA 343
FIELD FieldData 8

NodeID_(#) 1 343 int
0
1
2
3
4
5
6
7
8
9
10
11
12
13
14
15
16
17
18
19
20
21
22
23
24
25
26
27
28
29
30
31
32
33
34
35
36
37
38
39
40
41
42
43
44
45
46
47
48
49
50
51
52
53
54
55
56
57
58
59
60
61
62
63
64
65
66
67
68
69
70
71
72
73
74
75
76
77
78
79
80
81
82
83
84
85
86
87
88
89
90
91
92
93
94
95
96
97
98
99
100
101
102
103
104
105
106
107
108
109
110
111
112
113
114
115
116
117
118
119
120
121
122
123
124
125
126
127
128
129
130
131
132
133
134
135
136
137
138
139
140
141
142
143
144
145
146
147
148
149
150
151
152
153
154
155
156
157
158
159
160
161
162
163
164
165
166
167
168
169
170
171
172
173
174
175
176
177
178
179
180
181
182
183
184
185
186
187
188
189
190
191
192
193
194
195
196
197
198
199
200
201
202
203
204
205
206
207
208
209
210
211
212
213
214
215
216
217
218
219
220
221
222
223
224
225
226
227
228
229
230
231
232
233
234
235
236
237
238
239
240
241
242
243
244
245
246
247
248
249
250
251
252
253
254
255
256
257
258
259
260
261
262
263
264
265
266
267
268
269
270
271
272
273
274
275
276
277
278
279
280
281
282
283
284
285
286
287
288
289
290
291
292
293
294
295
296
297
298
299
300
301
302
303
304
305
306
307
308
309
310
311
312
313
314
315
316
317
318
319
320
321
322
323
324
325
326
327
328
329
330
331
332
333
334
335
336
337
338
339
340
341
342

Component_(#) 1 343 int
0
0
0
0
0
0
0
0
0
0
0
0
0
0
0
0
0
0
0
0
0
0
0
0
0
0
0
0
0
0
0
0
0
0
0
0
0
0
0
0
0
0
0
0
0
0
0
0
0
0
0
0
0
0
0
0
0
0
0
0
0
0
0
0
0
0
0
0
0
0
0
0
0
0
0
0
0
0
0
0
0
0
0
0
0
0
0
0
0
0
0
0
0
0
0
0
0
0
0
0
0
0
0
0
0
0
0
0
0
0
0
0
0
0
0
0
0
0
0
0
0
0
0
0
0
0
0
0
0
0
0
0
0
0
0
0
0
0
0
0
0
0
0
0
0
0
0
0
0
0
0
0
0
0
0
0
0
0
0
0
0
0
0
0
0
0
0
0
0
0
0
0
0
0
0
0
0
0
0
0
0
0
0
0
0
0
0
0
0
0
0
0
0
0
0
0
0
0
0
0
0
0
0
0
0
0
0
0
0
0
0
0
0
0
0
0
0
0
0
0
0
0
0
0
0
0
0
0
0
0
0
0
0
0
0
0
0
0
0
0
0
0
0
0
0
0
0
0
0
0
0
0
0
0
0
0
0
0
0
0
0
0
0
0
0
0
0
0
0
0
0
0
0
0
0
0
0
0
0
0
0
0
0
0
0
0
0
0
0
0
0
0
0
0
0
0
0
0
0
0
0
0
0
0
0
0
0
0
0
0
0
0
0
0
0
0
0
0
0
0
0
0
0
0
0
0
0
0
0
0
0
0
0
0
0
0
0
0
0
0
0
0
0

NodalMass_(kg) 1 343 double
3.15563e-06
1.41304e-05
2.20912e-06
1.71484e-05
8.42e-06
9.09306e-06
9.93033e-06
7.52198e-06
6.81096e-06
5.58223e-06
3.10888e-06
1.07575e-05
4.87011e-06
1.64955e-05
3.0246e-06
8.05984e-06
6.703e-06
1.0877e-05
4.18978e-06
8.16106e-06
6.14143e-06
1.17902e-05
2.23114e-06
4.25176e-06
1.09915e-05
7.41467e-06
4.21871e-06
3.92484e-06
3.08766e-06
1.31268e-05
7.72627e-06
1.65404e-05
1.19037e-05
7.29666e-06
3.81683e-06
1.11001e-05
3.81317e-06
1.39137e-05
6.37414e-06
8.00975e-06
7.6712e-06
1.18847e-05
1.6399e-05
2.78633e-06
8.93599e-06
2.58087e-06
7.57362e-06
4.23241e-06
1.31286e-05
3.80168e-06
2.7746e-06
7.16776e-06
1.21307e-05
5.11765e-06
8.19728e-06
4.58094e-06
2.79503e-06
3.26126e-06
4.12443e-06
2.11915e-06
3.35177e-06
3.61669e-06
1.56838e-05
7.33679e-06
8.24695e-06
5.00369e-06
2.82625e-06
7.20276e-06
3.26815e-06
4.18751e-06
2.02785e-06
2.42152e-06
3.11835e-06
5.97459e-06
5.87101e-06
4.09374e-06
5.45463e-06
2.28825e-06
4.49759e-06
4.38192e-06
4.50892e-06
4.39234e-06
4.27273e-06
5.32031e-06
1.53201e-06
2.38869e-06
2.02885e-06
4.38798e-06
3.17972e-06
3.14298e-06
4.61567e-06
5.87645e-06
8.18088e-06
2.48341e-06
1.53815e-05
3.49683e-06
7.35227e-06
2.01314e-06
2.0408e-06
7.98183e-06
4.41293e-06
7.1389e-06
1.20123e-06
5.03343e-06
1.61257e-06
4.12601e-06
8.73748e-06
4.37849e-06
7.97173e-06
2.13557e-06
3.38137e-06
9.48623e-06
7.40262e-06
1.80226e-06
2.10222e-06
7.98889e-06
1.87983e-06
7.44814e-06
4.19782e-06
2.37156e-06
4.31705e-06
6.06441e-06
4.30905e-06
2.16843e-06
1.8986e-06
1.81294e-06
3.89762e-06
2.44299e-06
1.65628e-06
8.01374e-06
1.64513e-06
2.3931e-06
3.01363e-06
2.99431e-06
1.36541e-06
1.87293e-06
2.09622e-06
1.94762e-06
1.87618e-06
6.37913e-06
4.58628e-06
2.02767e-06
1.61999e-06
2.41284e-06
3.8865e-06
4.44973e-06
2.29839e-06
1.17349e-05
3.11811e-06
1.354e-06
3.45063e-06
1.81846e-06
2.9382e-06
1.37381e-06
2.41464e-06
2.10451e-06
2.63927e-06
2.14166e-06
1.7943e-06
3.19976e-06
1.36989e-06
2.43489e-06
2.08158e-06
1.3601e-06
2.17203e-06
1.89924e-06
3.16996e-06
2.6119e-06
2.37677e-06
1.60225e-06
1.90684e-06
5.49206e-06
1.87878e-06
3.14313e-06
2.97301e-06
1.18454e-06
1.89263e-06
2.04166e-06
2.73572e-06
2.42405e-06
3.23083e-06
3.19752e-06
3.2142e-06
1.94492e-06
1.61196e-06
1.86876e-06
3.22435e-06
2.1114e-06
2.96917e-06
6.15288e-06
2.3097e-06
2.39729e-06
2.38029e-06
2.64508e-06
1.66557e-06
1.82377e-06
2.06583e-06
5.73271e-06
2.08467e-06
2.18324e-06
2.43522e-06
3.1188e-06
3.17316e-06
2.05447e-06
1.9592e-06
3.05718e-06
6.44327e-06
2.08796e-06
2.72615e-06
2.15709e-06
1.86812e-06
2.0028e-06
2.10999e-06
2.88994e-06
2.3222e-06
2.3979e-06
1.97629e-06
6.4127e-06
2.16225e-06
3.29198e-06
2.10223e-06
2.66566e-06
1.94415e-06
2.91865e-06
2.58116e-06
2.11703e-06
2.09534e-06
1.91719e-06
7.06046e-06
2.25203e-06
2.06378e-06
6.28159e-06
2.12147e-06
2.90924e-06
2.12921e-06
6.4487e-06
1.41701e-06
2.0682e-06
6.58062e-06
2.52584e-06
2.39732e-06
7.42191e-07
2.22368e-06
7.06751e-07
7.00657e-07
8.93749e-07
2.53536e-06
2.26535e-06
1.33607e-06
7.84725e-07
2.32303e-06
6.06694e-07
6.68276e-07
6.84307e-07
2.51242e-06
2.31629e-06
7.8367e-07
6.80839e-07
6.22692e-06
6.7471e-07
6.65305e-07
7.01158e-07
1.8232e-06
1.90695e-06
6.86722e-07
7.04792e-07
1.86445e-06
2.28572e-06
6.8045e-07
7.16005e-07
1.82373e-06
6.01079e-07
2.02791e-06
7.4579e-07
5.74423e-07
1.80052e-06
1.454e-06
2.2702e-06
1.80636e-06
2.15356e-06
1.79089e-06
1.79456e-06
6.8231e-07
2.24737e-06
1.45239e-06
1.79556e-06
6.97875e-07
6.24265e-07
6.62717e-07
1.44627e-06
1.40138e-06
2.15258e-06
1.82851e-06
1.3994e-06
1.43932e-06
2.19226e-06
6.97732e-07
1.77726e-06
1.79162e-06
6.54258e-07
7.3397e-07
2.34895e-06
7.10392e-07
6.56982e-07
6.26314e-07
2.18926e-06
6.12493e-07
6.03901e-07
5.92831e-07
5.12031e-07
5.11667e-07
4.9467e-07
4.97016e-07
4.96269e-07
5.33079e-07
4.94191e-07
4.97855e-07
4.86862e-07
4.90626e-07
4.94649e-07
4.94954e-07
4.91922e-07
4.89615e-07
4.96354e-07
4.95189e-07
4.82188e-07
1.10854e-06
5.3299e-07
5.44763e-07
5.36655e-07
5.15417e-07
5.01772e-07
5.53774e-07
5.53774e-07
5.53774e-07
5.53774e-07
5.53774e-07
5.53774e-07
5.50785e-07
5.50785e-07
7.45291e-07
7.11668e-07
4.9897e-07

NodalForce_(N) 3 343 double
5.76971e-07 -9.77358e-08 2.60689e-08
4.64055e-06 -1.50719e-06 1.04635e-06
9.36058e-05 0.000262616 0.000379707
-3.37446e-07 -1.74555e-06 1.03189e-06
-7.12416e-06 -7.89702e-06 5.03438e-06
-6.67732e-06 -7.4585e-06 5.89347e-06
1.45557e-07 -1.78789e-05 1.41771e-05
3.66109e-06 -8.94144e-06 6.86647e-06
-8.7228e-06 -1.04952e-05 8.21561e-06
4.36156e-07 -4.03135e-06 3.07367e-06
-6.41314e-06 -2.33109e-06 1.80469e-06
-1.91225e-05 -1.11078e-05 8.35227e-06
-9.96938e-06 -3.8705e-06 2.5146e-06
-7.90773e-06 -1.50922e-06 1.41111e-06
-5.15558e-06 -1.98397e-06 1.86601e-06
4.71989e-07 -1.15998e-05 9.9653e-06
3.6613e-06 -8.22009e-06 6.55259e-06
-2.98701e-06 -1.44981e-06 1.00043e-06
-0.00100819 0.000500415 3.55773e-05
-7.41154e-08 -3.09841e-07 1.70754e-07
-1.14497e-07 -9.60267e-06 6.94048e-06
-1.38458e-05 -2.41145e-05 1.76046e-05
-0.000369875 -0.00123493 -0.000631147
7.19616e-07 -3.23205e-06 1.9876e-06
-1.69201e-06 -1.05463e-05 7.7563e-06
3.24284e-06 -3.64299e-06 3.41848e-06
-1.26055e-06 -1.31406e-07 1.68935e-07
-2.5499e-06 -2.97799e-06 2.03659e-06
3.27272e-06 -5.02781e-07 5.2772e-07
7.55901e-06 -7.30605e-07 9.08259e-07
8.56776e-06 -3.08779e-06 3.6518e-06
6.72518e-06 -3.21951e-05 2.77761e-05
-1.32271e-05 -2.32498e-05 1.98613e-05
2.22043e-06 -1.55619e-05 1.27447e-05
9.08071e-06 -1.12103e-05 8.82818e-06
1.54277e-05 -1.94768e-05 1.53959e-05
1.09614e-05 -8.67342e-06 6.65877e-06
3.74446e-05 -2.71224e-05 2.17035e-05
-4.07927e-06 -2.42412e-06 1.81654e-06
-8.55673e-06 -4.67201e-06 4.77408e-06
-7.78733e-06 -4.5221e-06 2.39366e-06
3.23155e-06 -9.12917e-06 8.22092e-06
1.42335e-06 -1.55368e-06 9.72e-07
2.03848e-06 -6.83172e-07 3.69969e-07
7.02668e-06 -4.29191e-06 2.79198e-06
0.000671913 0.000468609 -0.000321821
1.49871e-06 -5.33883e-07 3.29357e-07
7.61181e-05 0.000782614 0.000168327
-1.67666e-06 -1.4245e-06 1.31342e-06
-9.28506e-07 -1.89066e-07 9.84096e-08
-1.75485e-06 -4.34043e-06 4.01278e-06
-4.06201e-06 -7.94801e-06 7.63822e-06
4.11965e-06 -7.50603e-07 7.48185e-07
1.09848e-06 -1.00948e-06 8.63737e-07
3.8794e-07 -4.25722e-07 3.59659e-07
-3.28717e-06 -1.3431e-05 1.12258e-05
0.000491212 0.00052323 0.000537436
1.43453e-06 -2.20062e-07 1.17867e-07
-0.000130762 -4.49967e-05 -0.000259864
8.81778e-07 -6.17179e-06 5.13357e-06
-3.25229e-06 -8.42384e-07 9.45171e-07
-4.52996e-06 -1.14639e-05 8.49028e-06
-2.50203e-06 -3.45958e-05 2.49768e-05
-1.29688e-06 -1.64566e-05 1.26034e-05
-5.5989e-06 -4.54123e-06 2.29873e-06
1.85526e-06 -6.95829e-08 1.19129e-07
-3.38251e-06 -1.01571e-06 4.91253e-07
-9.28595e-06 -8.31188e-06 7.65208e-06
5.28736e-06 -9.5132e-06 7.58721e-06
-8.09395e-06 -1.05607e-05 7.52677e-06
1.18852e-06 -7.145e-07 5.85713e-07
-3.09757e-06 -7.07751e-07 6.36719e-07
-2.34429e-06 -1.14304e-06 4.98904e-07
-3.18998e-06 -3.78745e-06 3.78689e-06
-2.42734e-07 -1.62475e-06 1.12148e-06
0.000939416 0.000409397 0.00033912
-2.75501e-07 -4.02032e-06 2.97859e-06
4.07909e-07 -8.26979e-08 6.11589e-08
-8.12807e-07 -4.90277e-06 4.5133e-06
4.1205e-06 -5.12288e-06 4.65084e-06
2.99844e-06 -2.7026e-06 2.39659e-06
-5.10991e-07 -2.52318e-06 2.17842e-06
6.65489e-06 -1.24781e-05 1.01005e-05
3.2331e-06 -1.14533e-06 1.04957e-06
-4.32127e-05 -0.000892558 0.000234492
1.13812e-06 -3.30652e-09 1.81016e-08
8.81541e-05 -0.000490472 0.000299398
-0.000194245 -0.000221294 8.88821e-05
-0.000172322 0.000139668 -0.000163355
2.214e-06 -5.45667e-07 5.00797e-07
-8.88773e-07 -1.50856e-07 1.26981e-07
1.28749e-06 -4.48824e-06 3.80321e-06
-1.94325e-06 -2.31677e-06 3.00541e-06
-6.39849e-06 -4.10557e-06 3.45143e-06
-3.78293e-05 -3.35258e-05 2.57529e-05
-4.75055e-06 -6.30492e-06 4.21728e-06
-5.70919e-06 -9.82672e-06 6.50275e-06
-4.66229e-07 -6.1813e-06 4.70984e-06
-8.25514e-05 8.73966e-07 -7.73577e-05
7.38998e-06 -1.0173e-05 7.89292e-06
6.97834e-07 -5.82045e-06 4.02645e-06
3.77088e-06 -8.70434e-06 7.00905e-06
1.14901e-06 -4.27971e-07 2.58567e-07
1.11204e-05 -1.14493e-05 8.97869e-06
2.45762e-07 -4.97527e-07 2.90854e-07
-3.42552e-06 -5.76172e-06 4.13444e-06
1.64895e-05 -1.09052e-05 8.22349e-06
-1.12556e-05 -1.099e-05 7.93443e-06
-1.34969e-05 -1.11064e-05 7.59263e-06
-7.75893e-07 -3.79013e-08 6.00464e-08
9.49159e-06 -5.26987e-06 4.48838e-06
1.74058e-05 -7.84536e-06 6.52171e-06
1.19207e-05 -7.61051e-06 7.00071e-06
-0.000394244 -0.000332355 -0.000498354
-1.36527e-06 -6.68014e-06 4.90597e-06
-1.25066e-06 -5.14366e-07 4.9288e-07
5.29461e-06 -5.52595e-06 4.37542e-06
7.8816e-06 -1.60385e-05 1.26958e-05
1.32524e-05 -5.13612e-06 3.97765e-06
-6.47053e-06 -4.31888e-06 2.89499e-06
-8.20638e-06 -1.36527e-05 1.02659e-05
-5.91736e-06 -1.35237e-05 1.06851e-05
-1.68146e-06 -2.42779e-07 1.45856e-07
0.000273207 0.000269646 -6.56827e-06
-7.93727e-07 -1.19729e-07 1.78727e-08
1.43223e-06 -5.26762e-06 4.28631e-06
1.16553e-05 -4.23981e-06 3.64868e-06
-0.000118392 -0.000621087 -0.000216466
-1.77805e-07 -7.53033e-08 6.31259e-08
1.02748e-05 -4.48789e-06 2.81779e-06
2.5588e-06 -3.78076e-06 3.08421e-06
2.28478e-06 -6.95376e-06 5.80577e-06
-8.16953e-06 -3.78662e-06 3.06644e-06
-5.93424e-06 -4.92188e-06 4.46656e-06
0.000112578 -0.00100547 -0.000148518
4.38338e-07 -2.29158e-08 4.21038e-08
9.48135e-05 -9.39215e-05 -0.000314363
-2.54128e-06 -4.98684e-06 3.52167e-06
3.87823e-06 -5.45136e-06 4.35459e-06
1.21034e-05 -1.39048e-05 1.10063e-05
-6.20335e-06 -1.00412e-05 8.7771e-06
-6.54516e-06 -4.05078e-06 3.19611e-06
-5.22202e-06 -4.14599e-06 2.98501e-06
-6.24897e-06 -7.65575e-06 5.84577e-06
-0.000837483 0.000194825 0.000179464
-1.31099e-05 -6.27141e-06 4.45558e-06
-2.54591e-06 -1.821e-06 9.57515e-07
1.30612e-05 -2.32847e-05 1.80455e-05
2.43407e-06 -9.37845e-06 7.19781e-06
1.53983e-06 -8.54428e-07 5.5253e-07
4.41922e-06 -8.99413e-07 5.23387e-07
-3.56549e-07 -5.60172e-08 4.13673e-08
-5.91116e-05 -0.000517813 -0.000133442
-1.48161e-07 -4.03237e-06 3.28387e-06
7.11073e-06 -3.89186e-06 2.83301e-06
-2.36405e-08 -3.77943e-06 3.31748e-06
0.000483127 -0.000601792 0.0002309
-0.00135732 6.75374e-05 0.00035645
-2.19518e-06 -2.55137e-06 2.46513e-06
-5.01828e-06 -9.73768e-06 7.69181e-06
-2.42989e-06 -1.10539e-06 5.60631e-07
1.00622e-06 -4.88952e-07 4.03614e-07
4.13794e-07 -4.20011e-06 3.00581e-06
-1.05133e-06 -1.34673e-06 1.3897e-06
2.38495e-08 -6.31262e-06 5.30303e-06
-1.00758e-06 -4.24579e-06 3.70628e-06
2.75976e-06 -5.14184e-06 4.03184e-06
3.075e-06 -6.50369e-07 8.33804e-07
8.42774e-06 -4.23415e-06 3.51739e-06
5.85318e-06 -2.97524e-06 2.30929e-06
4.44514e-06 -1.93209e-06 1.77967e-06
7.94218e-06 -8.06899e-06 6.52314e-06
-1.596e-06 -3.91321e-06 2.74835e-06
-2.1605e-06 -6.69094e-07 9.19986e-07
-2.77955e-06 -1.443e-06 1.87286e-06
-1.55848e-06 -6.39819e-07 7.65087e-07
1.9705e-06 -3.45863e-06 2.95996e-06
-2.47392e-06 -6.81048e-07 3.15208e-07
3.23559e-06 -8.08709e-06 6.3337e-06
0.000170181 -0.000745182 -0.000619911
-5.46593e-06 -9.62564e-06 7.93352e-06
4.92173e-06 -7.38126e-06 5.72958e-06
1.2252e-06 -9.97224e-06 7.39782e-06
0.000238538 -0.000670739 0.000277463
-2.00136e-07 -3.66752e-07 3.35413e-07
-6.36792e-06 -3.92885e-06 2.81821e-06
-9.38732e-06 -7.53119e-06 6.1496e-06
-4.60275e-06 -5.09558e-06 4.30441e-06
4.81742e-06 -3.25996e-06 2.21923e-06
5.83103e-06 -5.05384e-06 3.6749e-06
4.94677e-06 -2.54389e-06 1.66409e-06
3.76178e-06 -3.80524e-06 2.89849e-06
-1.03067e-06 -3.91056e-07 7.46938e-07
2.83165e-06 -1.30529e-06 1.39353e-06
-1.45345e-06 -6.68063e-07 2.83347e-07
-2.14733e-06 -8.29519e-07 3.82675e-07
2.60648e-06 -6.24595e-06 4.76466e-06
8.49339e-06 -2.48212e-06 2.20939e-06
3.48777e-07 -6.23668e-06 4.90031e-06
4.53693e-06 -2.98102e-06 2.60647e-06
8.57289e-06 -5.61166e-06 4.30381e-06
0.000101071 -0.000204206 0.000274803
1.14538e-06 -8.83646e-08 6.09858e-08
-4.06017e-05 0.000379709 -1.26741e-05
4.50123e-06 -1.2069e-06 1.05891e-06
6.90483e-06 -2.0401e-06 1.45605e-06
4.53969e-06 -4.51777e-06 4.11379e-06
3.32654e-06 -3.50154e-06 2.85135e-06
-4.09247e-06 -3.52506e-06 2.06711e-06
-4.36998e-06 -2.80741e-06 1.62832e-06
8.58526e-07 -5.33354e-08 4.30284e-09
1.57194e-06 -4.85108e-06 3.62133e-06
-1.99497e-06 -6.26572e-06 5.09097e-06
6.66112e-06 -4.77873e-06 3.53063e-06
-4.62716e-06 -2.50407e-06 2.36278e-06
-1.04867e-06 -6.46235e-07 3.68775e-07
-4.92395e-06 -6.13848e-06 4.87172e-06
3.8456e-07 -8.67436e-07 7.58084e-07
2.76154e-06 -2.35438e-06 2.11421e-06
7.88344e-06 -6.98349e-06 5.73329e-06
2.57496e-06 -2.12183e-06 1.65436e-06
-1.33075e-06 -7.9521e-06 6.35133e-06
4.88824e-06 -1.98923e-06 1.33495e-06
-6.00329e-06 -5.42404e-06 3.66427e-06
2.79663e-06 -6.57951e-07 3.30797e-07
-0.000605227 -0.0001017 9.65928e-05
-1.06099e-06 -1.22775e-06 1.36855e-06
-4.52448e-06 -2.33976e-06 1.43664e-06
2.1869e-06 -2.33e-06 1.75287e-06
3.4843e-06 -1.46567e-06 8.39701e-07
-3.00373e-06 -1.67714e-06 7.92216e-07
-3.54676e-07 -2.07376e-06 1.77269e-06
0.000553607 -0.000711528 -1.66411e-05
-3.76351e-06 -3.48955e-05 0.000207986
3.56512e-06 -1.42068e-06 1.59896e-06
5.92351e-06 -4.49213e-06 3.62169e-06
-1.55048e-06 -1.70281e-06 1.07959e-06
1.10805e-06 -6.09006e-06 4.87265e-06
2.70249e-06 -2.12482e-06 1.62277e-06
-3.47678e-06 -2.41891e-06 2.59356e-06
4.49882e-06 -7.10375e-06 5.51756e-06
0.00018517 7.90536e-06 0.000135479
7.23698e-06 -4.99013e-06 4.06812e-06
-1.50431e-07 -4.37401e-07 2.80205e-07
0.000485711 -0.00039959 -6.92628e-06
2.53532e-07 -8.00791e-07 7.3307e-07
0.000712004 -0.000339684 -0.000155797
6.35761e-06 -6.57954e-06 5.22842e-06
3.8767e-06 -3.92887e-06 3.13389e-06
0.000141727 -0.000281741 -4.60827e-05
1.51407e-06 -2.02291e-06 1.64468e-06
-0.00028222 -0.000303333 -0.000275962
-1.0937e-06 -2.1677e-06 1.56871e-06
1.32989e-06 -2.02415e-06 1.63003e-06
4.63778e-06 -1.24671e-06 1.35482e-06
-2.05947e-06 -7.06308e-06 5.49223e-06
-2.28437e-07 -8.84235e-07 5.94358e-07
-0.000607912 -0.00068829 -6.56904e-05
-1.80209e-06 -2.52277e-06 1.73283e-06
-1.91998e-06 -7.31188e-07 5.36259e-07
-1.9489e-06 -2.1437e-06 1.58698e-06
-0.000490457 -0.00044793 -3.16523e-05
7.32036e-06 -4.36357e-06 3.41142e-06
6.66796e-06 -5.61829e-06 4.41023e-06
-1.56854e-06 -2.21267e-06 1.62668e-06
1.45455e-06 -2.10156e-06 1.65111e-06
6.84278e-08 -1.48091e-07 2.21692e-08
0.000224879 0.000519199 -0.000136109
-9.23702e-06 4.49581e-05 -1.2575e-05
0.000160537 -0.000219127 -7.04081e-05
7.04923e-06 -4.28894e-06 3.44681e-06
1.9604e-06 -1.78028e-06 1.38731e-06
3.82634e-06 -1.33954e-06 7.15485e-07
-7.20436e-07 -2.16465e-06 1.87061e-06
-6.99596e-05 -0.000100621 2.43172e-06
9.93377e-05 0.000532172 0.000128978
-6.20963e-07 -1.22439e-07 2.66369e-08
-8.2201e-07 -1.08724e-07 7.29082e-08
1.95273e-06 -4.33697e-06 3.6755e-06
-3.91223e-08 -1.11976e-07 5.90899e-08