# vtk DataFile Version 4.2
vtk output
ASCII
DATASET UNSTRUCTURED_GRID

POINTS 343 double
0.00156564 0.00421605 -1.96665e-05
0.00302273 0.0050247 0.00214004
0 0.00419538 0.00112517
0.00270319 0.00199184 0.00190966
0.0071014 0.00250905 0.00496371
0.00707996 0.0039428 0.00635986
0.0102545 0.0049719 0.00491396
0.00845138 0.00500295 0.00358128
0.00925392 0.00344395 0.00689136
0.00683326 0.00510764 0.00493233
0.00571377 0.00119778 0.0100009
0.00722457 0.00218498 0.00789303
0.00576172 6.20858e-05 0.00830362
0.00280706 0.00203807 0.00800111
0.00584695 0.0026154 0.010001
0.0093478 0.00664037 0.0069293
0.00866695 0.00635459 0.00511035
0.00315461 0.00222589 0.00511319
0 0.00143586 0.00417514
0.00222774 0.00349405 0.00401291
0.0092682 0.00334675 0.00302653
0.0104572 0.00238086 0.00497967
0 0.00270918 0.00154168
0.00570802 0.00150904 -0.000107481
0.00687365 0.00228929 0.00208444
0.0054499 0.00360911 0.00151219
0.00189012 2.22841e-05 0.00404015
0.00576981 6.2196e-05 0.00159406
0.00360106 0.00700468 -6.29596e-05
0.00268448 0.00808765 0.001912
0.00559137 0.00633969 0.00155118
0.01063 0.00824722 0.00801795
0.0106614 0.0050269 0.00804415
0.0111747 0.00632766 0.00589166
0.0130698 0.00919157 0.00406534
0.010122 0.00787542 0.00487682
0.0112857 0.0103241 0.00404889
0.0106119 0.00823792 0.00183362
0.00488559 0.00310787 0.00691971
0.00607253 0.00375309 0.00831055
0.00539298 0.00167214 0.00592188
0.00677478 0.00779577 0.00765766
0.00275315 0.00804091 0.00796083
0.00385122 0.0100691 0.00709025
0.00534458 0.00849642 0.00590959
0 0.00695361 0.00262895
0.00228876 0.00626997 0.00406061
0 0.0040177 0.00850214
0.00321039 0.00503019 0.00762811
0.00198749 0.00420102 0.00997887
0.00955168 0.00733068 0.0100539
0.00824958 0.00612766 0.00842675
0.00284302 0.00797651 0.00470947
0.00419508 0.0070003 0.00642292
0.00220422 0.00610713 0.00590169
0.0131206 0.00608343 0.00835029
0 0.00718191 0.00711644
0.00219876 0.00580393 -2.97457e-05
0 0.00577432 0.00158701
0.0130997 0.00749107 0.00710881
0.00392555 0.00340388 0.00998955
0.0132093 0.00162059 0.00404343
0.0108309 0.00211293 0.00178833
0.0112441 0.00370908 0.00387066
0.00517162 0.00171713 0.00407242
0.00208496 0.0100272 0.00579156
0.00391065 4.09295e-05 0.00708922
0.0082745 0.00431263 0.00838199
0.0131144 0.00760031 0.00406903
0.011472 0.00011534 0.00404506
0.00459605 0.0029367 -8.40443e-05
0.00371047 0.00158697 0.00998959
0.0039294 3.98872e-05 0.00278832
0.00654794 0.00529955 0.00753453
0.00438314 0.00320894 0.00311971
0 0.00849157 0.00581511
0.00667967 0.00377368 0.00370383
0.00214589 0.00273814 -2.85113e-05
0.00774353 0.00848002 0.0100373
0.00796608 0.0101867 0.00851843
0.00567348 0.0101132 0.00830251
0.00541314 0.0085955 0.0100065
0.0130755 0.00882456 0.00575455
0.00434008 0.00689649 0.00310155
0 0.00748929 0.00137438
0.00190178 0.00751167 -2.42879e-05
0 0.00287343 0.00335182
0 0.00580816 0.00831736
0 0.00429792 0.00253898
0.00349363 0.00434798 -6.04475e-05
0.00198427 0.00584291 0.00997967
0.00703855 0.00659521 0.006359
0.00492658 0.00658098 0.00821539
0.00932942 0.00275792 0.0100411
0.0107569 0.00210663 0.00805358
0.00943949 0.000100359 0.00294051
0.00819952 0.00176929 0.00350115
0.0131903 0.00308635 0.00318567
0 0.00140616 0.00256446
0.00855637 0.00840605 0.00638412
0.0078954 0.00153517 -0.00016244
0.00818752 0.00367524 0.00145275
0.00429984 0.0100796 0.00578368
0.0112762 0.0103212 0.00577405
0.00353471 0.00145051 -6.08458e-05
0.00812615 8.21044e-05 0.00134587
0.00843824 0.00846617 0.00350722
0.0114611 0.000115427 0.00577755
0.00843783 0.00178154 0.0063272
0.00195083 0.00258868 0.0099798
0.00950324 0.00738779 -0.000200218
0.00699763 0.00782125 0.00205286
0.00803213 0.00623988 0.00145414
0 0.00686719 0.00578184
0.0132046 0.00158859 0.0023727
0.00247051 0.00364253 0.00638017
0.0130743 0.00882404 0.00243716
0.0112031 0.00641917 0.00401167
0.00798479 0.0101968 0.00134618
0.00942336 9.50994e-05 0.00690957
0.0132038 0.00162224 0.0057642
0.011218 0.00375664 0.00601273
0.0021024 2.53225e-05 0.00579225
0 0.0013659 0.00748679
0.00190752 2.16312e-05 0.00750484
0.0131208 0.00717768 0.00571534
0.00779563 0.00865791 -0.00016857
0 0.0075208 0.00859127
0.00188652 0.00750533 0.00998227
0.00577149 0.00830899 0.00355678
0.0113016 0.0103191 0.00751744
0.0130557 0.00896587 0.00753537
0.00780899 0.0016882 0.0100278
0.00971226 0.00434646 0.0100481
0 0.0057735 0.00666667
0.00189246 0.0100258 0.00750481
0 0.00863025 0.00752641
0.0115007 0.000117391 0.0023269
0.0131177 0.0072755 0.00244265
0.0112549 0.00658518 0.0019744
0.0112817 0.0060489 0.0100725
0.0100337 0.00151047 0.0100525
0.0114848 0.000117555 0.00751733
0.0131886 0.00154858 0.00749395
0 0.00143551 0.00581971
0.00811319 8.19537e-05 0.00851595
0.00580317 5.882e-05 0.00332278
0.0106304 0.00490248 0.00184871
0.0131667 0.00453889 0.00233895
0.00571484 0.0101206 0.00663097
0.00386763 0.0100711 0.00278552
0.00183648 2.10444e-05 0.00239805
0 0.00727418 0.00419576
0.0131356 0.00604366 0.00664098
0.00926703 0.0102438 0.00294579
0.00993853 0.00886415 0.0100592
0 0.00574334 0.00336387
0 0.0043297 0.00416652
0.00918131 0.00594838 0.0100482
0.0131768 0.00323282 0.00690329
0.00581195 5.88967e-05 0.00663278
0.00337359 0.0100612 0.00858956
0.0100642 0.00149837 -0.000208635
0.00774808 0.00680352 0.0100331
0.0130757 0.00783075 0.00863469
0.0113638 0.00781076 0.0100768
0.00931712 0.00315813 -0.000192862
0.00459809 0.00581101 -8.51605e-05
0.00999318 0.0088724 -0.000210136
0.00994678 0.0102752 0.00120538
0.00778639 0.00701565 -0.000165513
0.00936924 0.00655813 0.00289467
0.0101262 0.000107254 0.00119918
0.0039343 0.00504913 0.00999071
0.00586603 0.00591528 0.0100105
0.00587967 0.00424652 0.010007
0.00993546 0.0102606 0.008648
0.00342296 3.43326e-05 0.00858667
0.0131498 0.00601015 0.00319811
0 0.00302218 0.00691532
0.0131493 0.00424598 0.00853988
0.0113214 0.00421236 -0.000244275
0.0131842 0.00292131 0.00130829
0 0.00244495 0.00857025
0.00332363 0.00861834 0.00999215
0.0101016 0.000107184 0.00864622
0.0112987 0.00279035 0.0100698
0.0117287 0.00439575 0.010076
0.0076117 0.010179 0.00578789
0.00703693 0.00771211 0.00496771
0.00757836 0.0101808 0.0041285
0.00926198 0.0102368 0.00691009
0.00411014 0.00696612 0.00999568
0.00568519 0.00441479 -0.000112278
0.00393326 4.35992e-05 0.0043617
0.00436818 4.56505e-05 0.00578328
0.0131565 0.00443575 0.000878939
0.00495615 0.00842338 0.00150799
0.0131728 0.00457396 0.00404114
0.00895647 0.00594109 -0.000190204
0.0113129 0.0103286 0.00233639
0 0.00848692 0.00262374
0.00186911 0.0100234 0.00403883
0 0.00885053 0.00419359
0.00566348 0.00896063 -0.000113981
0.00568104 0.0101222 0.00159391
0.00682434 0.00489832 0.00226854
0.0096909 0.00469086 -0.000204728
0.00770677 7.99859e-05 0.00412035
0.00774147 7.98535e-05 0.0057847
0.0018147 0.0100238 0.00239787
0.0114315 0.00261659 -0.000245938
0.0131519 0.004766 0.00721955
0.00944892 0.0102504 0.0049209
0.00775696 0.0034762 0.0100241
0.00340986 3.26752e-05 0.00130782
0.0131662 0.00264513 0.00861021
0.00331958 0.00483688 0.00496274
0.00788876 0.00445412 -0.000164994
0.0110606 0.00604119 -0.000234847
0.0073466 0.0101668 0.0071943
0.0131658 0.00457283 0.00577384
0.00725774 0.0101706 0.00266743
0.00962131 9.70585e-05 0.00491455
0.00387441 0.0100695 0.00435945
0 0.00452174 0.00721958
0.0060981 0.00731982 0.0100149
0.00747483 7.67495e-05 0.00720005
0.00497096 0.00514652 0.00353922
0.00576108 0.010126 0.00495041
0.00585933 5.60362e-05 0.00494963
0.00505537 0.00528914 0.006126
0 0.005744 0.00499998
0 0.00433013 0.00583333
0.006777 0.00585662 -0.00014063
0.00679346 0.00645258 0.00346393
0.00737849 7.7323e-05 0.0026647
0.0131489 0.00600549 0.00490764
0.00507892 0.00648188 0.00478856
0.00773876 0.00512051 0.010027
0.013137 0.00604805 0.00135293
0 0.00666667 0
0.0113584 0.00778836 -0.000241682
0.0045778 4.33742e-05 -7.8808e-05
0 0.01 0.00666667
0.0066695 0.0101512 0.0100165
0 0.00288419 0.00499914
0.0130939 0.0078214 0.00113253
0.0130985 0.00696806 -0.000271188
0 0.005 0.01
0.00680224 0.0029777 -0.000136794
0 0.005 0
0.0132054 0.000121794 0.00316761
0.0130049 0.0103982 0.00664571
0.00569123 0.00737106 -0.000114951
0.0131912 0.00308886 0.0049061
0.00680928 6.2396e-05 -0.000126927
0 0 0.00666667
0.00524475 0.00369017 0.00517325
0.00678515 7.10949e-05 0.0100132
0.013195 0.000122923 0.00664631
0 0 0.005
0.0115327 0.0103418 0.00100423
0.0130549 0.00913202 0.000977502
0.0132041 0.000122161 0.00490889
0.0131258 0.00526078 -0.000276884
0.00170276 0.00124356 -2.15848e-05
0 0.00122008 0.00122008
0 0.00333333 0.01
0 0.00666667 0.01
0.0115506 0.0090847 -0.000245417
0.0130164 0.0104033 0.00317873
0.00571129 0.010124 0.00332515
0.0130682 0.00695725 0.0100978
0 0.00333333 0
0 0.00122008 0.00877992
0.00169667 1.896e-05 0.00876311
0.00169461 0.00124149 0.00998244
0.0115193 0.0103259 0.00882763
0.00168444 0.00879983 0.00998462
0 0.00877992 0.00877992
0.0130399 0.00912026 0.00883104
0.00885405 0.0102381 -0.00018003
0.0132 0.0013952 0.000977576
0.00168155 0.0100247 0.00876173
0.0115423 0.00907086 0.0100801
0.0131025 0.00525327 0.0100961
0 0 0.00333333
0.0090098 8.31056e-05 -0.000175941
0.011723 0.000119275 0.000997412
0.00169178 1.86393e-05 0.00118989
0 0.00877992 0.00122008
0.00168581 0.00880158 -2.21037e-05
0.00167061 0.0100239 0.0011918
0.0131782 0.00139802 0.00883076
0.0116759 0.00137525 0.0100754
0.00898053 9.1829e-05 0.0100395
0.0117044 0.00136906 -0.000250539
0.0117013 0.000122473 0.00882878
0.0131547 0.00355697 -0.000279108
0.00448938 0.0100902 0.00999375
0.00335632 0.0100604 0.00130819
0.00882516 0.0102237 0.0100404
0.0131291 0.00354317 0.0100926
0 0.01 0.005
0.00357929 0.00854332 -6.2321e-05
0.0130145 0.0104026 0.0049026
0 0.01 0.00333333
0 0.00166667 0
0.013201 0.000126173 0.00143983
0 0.00166667 0.01
0 0.00833333 0
0.0130487 0.00868113 -0.000279542
0.0131811 0.000129262 0.00837233
0.0130101 0.010403 0.00144325
0.0129929 0.0103925 0.00837143
0.00227504 0.0100421 0.00998311
0 0.01 0.00833333
0.0109598 0.0103263 -0.00022344
0.0111482 0.000107133 -0.000227693
0.0111189 0.000117903 0.0100657
0.0109443 0.0103054 0.0100686
0 0 0.00833333
0.0130295 0.00865958 0.0100977
0.00231624 2.02662e-05 -3.0626e-05
0 0 0.00166667
0.00450459 0.0100911 -8.33645e-05
0.013151 0.00185774 0.0100928
0.0131782 0.00185406 -0.000277838
0.00230495 2.40988e-05 0.00998339
0.00228005 0.0100385 -3.34957e-05
0 0.01 0.00166667
0.0129826 0.0103877 0.0100923
0 0 0.01
0.0129977 0.0104027 -0.000271644
0.0131704 0.000135841 0.0100914
0 0.01 0.01
0.0131961 0.000123589 -0.000271789
0 0.01 0
0 0 0
0.00669782 0.0101611 -0.000136148
0.00455662 5.21247e-05 0.00999732
0 0.00833333 0.01

CELLS 343 686
1 0
1 1
1 2
1 3
1 4
1 5
1 6
1 7
1 8
1 9
1 10
1 11
1 12
1 13
1 14
1 15
1 16
1 17
1 18
1 19
1 20
1 21
1 22
1 23
1 24
1 25
1 26
1 27
1 28
1 29
1 30
1 31
1 32
1 33
1 34
1 35
1 36
1 37
1 38
1 39
1 40
1 41
1 42
1 43
1 44
1 45
1 46
1 47
1 48
1 49
1 50
1 51
1 52
1 53
1 54
1 55
1 56
1 57
1 58
1 59
1 60
1 61
1 62
1 63
1 64
1 65
1 66
1 67
1 68
1 69
1 70
1 71
1 72
1 73
1 74
1 75
1 76
1 77
1 78
1 79
1 80
1 81
1 82
1 83
1 84
1 85
1 86
1 87
1 88
1 89
1 90
1 91
1 92
1 93
1 94
1 95
1 96
1 97
1 98
1 99
1 100
1 101
1 102
1 103
1 104
1 105
1 106
1 107
1 108
1 109
1 110
1 111
1 112
1 113
1 114
1 115
1 116
1 117
1 118
1 119
1 120
1 121
1 122
1 123
1 124
1 125
1 126
1 127
1 128
1 129
1 130
1 131
1 132
1 133
1 134
1 135
1 136
1 137
1 138
1 139
1 140
1 141
1 142
1 143
1 144
1 145
1 146
1 147
1 148
1 149
1 150
1 151
1 152
1 153
1 154
1 155
1 156
1 157
1 158
1 159
1 160
1 161
1 162
1 163
1 164
1 165
1 166
1 167
1 168
1 169
1 170
1 171
1 172
1 173
1 174
1 175
1 176
1 177
1 178
1 179
1 180
1 181
1 182
1 183
1 184
1 185
1 186
1 187
1 188
1 189
1 190
1 191
1 192
1 193
1 194
1 195
1 196
1 197
1 198
1 199
1 200
1 201
1 202
1 203
1 204
1 205
1 206
1 207
1 208
1 209
1 210
1 211
1 212
1 213
1 214
1 215
1 216
1 217
1 218
1 219
1 220
1 221
1 222
1 223
1 224
1 225
1 226
1 227
1 228
1 229
1 230
1 231
1 232
1 233
1 234
1 235
1 236
1 237
1 238
1 239
1 240
1 241
1 242
1 243
1 244
1 245
1 246
1 247
1 248
1 249
1 250
1 251
1 252
1 253
1 254
1 255
1 256
1 257
1 258
1 259
1 260
1 261
1 262
1 263
1 264
1 265
1 266
1 267
1 268
1 269
1 270
1 271
1 272
1 273
1 274
1 275
1 276
1 277
1 278
1 279
1 280
1 281
1 282
1 283
1 284
1 285
1 286
1 287
1 288
1 289
1 290
1 291
1 292
1 293
1 294
1 295
1 296
1 297
1 298
1 299
1 300
1 301
1 302
1 303
1 304
1 305
1 306
1 307
1 308
1 309
1 310
1 311
1 312
1 313
1 314
1 315
1 316
1 317
1 318
1 319
1 320
1 321
1 322
1 323
1 324
1 325
1 326
1 327
1 328
1 329
1 330
1 331
1 332
1 333
1 334
1 335
1 336
1 337
1 338
1 339
1 340
1 341
1 342

CELL_TYPES 343
1
1
1
1
1
1
1
1
1
1
1
1
1
1
1
1
1
1
1
1
1
1
1
1
1
1
1
1
1
1
1
1
1
1
1
1
1
1
1
1
1
1
1
1
1
1
1
1
1
1
1
1
1
1
1
1
1
1
1
1
1
1
1
1
1
1
1
1
1
1
1
1
1
1
1
1
1
1
1
1
1
1
1
1
1
1
1
1
1
1
1
1
1
1
1
1
1
1
1
1
1
1
1
1
1
1
1
1
1
1
1
1
1
1
1
1
1
1
1
1
1
1
1
1
1
1
1
1
1
1
1
1
1
1
1
1
1
1
1
1
1
1
1
1
1
1
1
1
1
1
1
1
1
1
1
1
1
1
1
1
1
1
1
1
1
1
1
1
1
1
1
1
1
1
1
1
1
1
1
1
1
1
1
1
1
1
1
1
1
1
1
1
1
1
1
1
1
1
1
1
1
1
1
1
1
1
1
1
1
1
1
1
1
1
1
1
1
1
1
1
1
1
1
1
1
1
1
1
1
1
1
1
1
1
1
1
1
1
1
1
1
1
1
1
1
1
1
1
1
1
1
1
1
1
1
1
1
1
1
1
1
1
1
1
1
1
1
1
1
1
1
1
1
1
1
1
1
1
1
1
1
1
1
1
1
1
1
1
1
1
1
1
1
1
1
1
1
1
1
1
1
1
1
1
1
1
1
1
1
1
1
1
1
1
1
1
1
1
1
1
1
1
1
1
1
1
1
1
1
1
1
1
1
1
1
1
1
1
1
1
1
1
1

POINT_DATA 343
FIELD FieldData 8

NodeID_(#) 1 343 int
0
1
2
3
4
5
6
7
8
9
10
11
12
13
14
15
16
17
18
19
20
21
22
23
24
25
26
27
28
29
30
31
32
33
34
35
36
37
38
39
40
41
42
43
44
45
46
47
48
49
50
51
52
53
54
55
56
57
58
59
60
61
62
63
64
65
66
67
68
69
70
71
72
73
74
75
76
77
78
79
80
81
82
83
84
85
86
87
88
89
90
91
92
93
94
95
96
97
98
99
100
101
102
103
104
105
106
107
108
109
110
111
112
113
114
115
116
117
118
119
120
121
122
123
124
125
126
127
128
129
130
131
132
133
134
135
136
137
138
139
140
141
142
143
144
145
146
147
148
149
150
151
152
153
154
155
156
157
158
159
160
161
162
163
164
165
166
167
168
169
170
171
172
173
174
175
176
177
178
179
180
181
182
183
184
185
186
187
188
189
190
191
192
193
194
195
196
197
198
199
200
201
202
203
204
205
206
207
208
209
210
211
212
213
214
215
216
217
218
219
220
221
222
223
224
225
226
227
228
229
230
231
232
233
234
235
236
237
238
239
240
241
242
243
244
245
246
247
248
249
250
251
252
253
254
255
256
257
258
259
260
261
262
263
264
265
266
267
268
269
270
271
272
273
274
275
276
277
278
279
280
281
282
283
284
285
286
287
288
289
290
291
292
293
294
295
296
297
298
299
300
301
302
303
304
305
306
307
308
309
310
311
312
313
314
315
316
317
318
319
320
321
322
323
324
325
326
327
328
329
330
331
332
333
334
335
336
337
338
339
340
341
342

Component_(#) 1 343 int
0
0
0
0
0
0
0
0
0
0
0
0
0
0
0
0
0
0
0
0
0
0
0
0
0
0
0
0
0
0
0
0
0
0
0
0
0
0
0
0
0
0
0
0
0
0
0
0
0
0
0
0
0
0
0
0
0
0
0
0
0
0
0
0
0
0
0
0
0
0
0
0
0
0
0
0
0
0
0
0
0
0
0
0
0
0
0
0
0
0
0
0
0
0
0
0
0
0
0
0
0
0
0
0
0
0
0
0
0
0
0
0
0
0
0
0
0
0
0
0
0
0
0
0
0
0
0
0
0
0
0
0
0
0
0
0
0
0
0
0
0
0
0
0
0
0
0
0
0
0
0
0
0
0
0
0
0
0
0
0
0
0
0
0
0
0
0
0
0
0
0
0
0
0
0
0
0
0
0
0
0
0
0
0
0
0
0
0
0
0
0
0
0
0
0
0
0
0
0
0
0
0
0
0
0
0
0
0
0
0
0
0
0
0
0
0
0
0
0
0
0
0
0
0
0
0
0
0
0
0
0
0
0
0
0
0
0
0
0
0
0
0
0
0
0
0
0
0
0
0
0
0
0
0
0
0
0
0
0
0
0
0
0
0
0
0
0
0
0
0
0
0
0
0
0
0
0
0
0
0
0
0
0
0
0
0
0
0
0
0
0
0
0
0
0
0
0
0
0
0
0
0
0
0
0
0
0
0
0
0
0
0
0
0
0
0
0
0
0
0
0
0
0
0
0
0
0
0
0
0
0
0
0
0
0
0
0
0
0
0
0
0
0

NodalMass_(kg) 1 343 double
3.15563e-06
1.41304e-05
2.20912e-06
1.71484e-05
8.42e-06
9.09306e-06
9.93033e-06
7.52198e-06
6.81096e-06
5.58223e-06
3.10888e-06
1.07575e-05
4.87011e-06
1.64955e-05
3.0246e-06
8.05984e-06
6.703e-06
1.0877e-05
4.18978e-06
8.16106e-06
6.14143e-06
1.17902e-05
2.23114e-06
4.25176e-06
1.09915e-05
7.41467e-06
4.21871e-06
3.92484e-06
3.08766e-06
1.31268e-05
7.72627e-06
1.65404e-05
1.19037e-05
7.29666e-06
3.81683e-06
1.11001e-05
3.81317e-06
1.39137e-05
6.37414e-06
8.00975e-06
7.6712e-06
1.18847e-05
1.6399e-05
2.78633e-06
8.93599e-06
2.58087e-06
7.57362e-06
4.23241e-06
1.31286e-05
3.80168e-06
2.7746e-06
7.16776e-06
1.21307e-05
5.11765e-06
8.19728e-06
4.58094e-06
2.79503e-06
3.26126e-06
4.12443e-06
2.11915e-06
3.35177e-06
3.61669e-06
1.56838e-05
7.33679e-06
8.24695e-06
5.00369e-06
2.82625e-06
7.20276e-06
3.26815e-06
4.18751e-06
2.02785e-06
2.42152e-06
3.11835e-06
5.97459e-06
5.87101e-06
4.09374e-06
5.45463e-06
2.28825e-06
4.49759e-06
4.38192e-06
4.50892e-06
4.39234e-06
4.27273e-06
5.32031e-06
1.53201e-06
2.38869e-06
2.02885e-06
4.38798e-06
3.17972e-06
3.14298e-06
4.61567e-06
5.87645e-06
8.18088e-06
2.48341e-06
1.53815e-05
3.49683e-06
7.35227e-06
2.01314e-06
2.0408e-06
7.98183e-06
4.41293e-06
7.1389e-06
1.20123e-06
5.03343e-06
1.61257e-06
4.12601e-06
8.73748e-06
4.37849e-06
7.97173e-06
2.13557e-06
3.38137e-06
9.48623e-06
7.40262e-06
1.80226e-06
2.10222e-06
7.98889e-06
1.87983e-06
7.44814e-06
4.19782e-06
2.37156e-06
4.31705e-06
6.06441e-06
4.30905e-06
2.16843e-06
1.8986e-06
1.81294e-06
3.89762e-06
2.44299e-06
1.65628e-06
8.01374e-06
1.64513e-06
2.3931e-06
3.01363e-06
2.99431e-06
1.36541e-06
1.87293e-06
2.09622e-06
1.94762e-06
1.87618e-06
6.37913e-06
4.58628e-06
2.02767e-06
1.61999e-06
2.41284e-06
3.8865e-06
4.44973e-06
2.29839e-06
1.17349e-05
3.11811e-06
1.354e-06
3.45063e-06
1.81846e-06
2.9382e-06
1.37381e-06
2.41464e-06
2.10451e-06
2.63927e-06
2.14166e-06
1.7943e-06
3.19976e-06
1.36989e-06
2.43489e-06
2.08158e-06
1.3601e-06
2.17203e-06
1.89924e-06
3.16996e-06
2.6119e-06
2.37677e-06
1.60225e-06
1.90684e-06
5.49206e-06
1.87878e-06
3.14313e-06
2.97301e-06
1.18454e-06
1.89263e-06
2.04166e-06
2.73572e-06
2.42405e-06
3.23083e-06
3.19752e-06
3.2142e-06
1.94492e-06
1.61196e-06
1.86876e-06
3.22435e-06
2.1114e-06
2.96917e-06
6.15288e-06
2.3097e-06
2.39729e-06
2.38029e-06
2.64508e-06
1.66557e-06
1.82377e-06
2.06583e-06
5.73271e-06
2.08467e-06
2.18324e-06
2.43522e-06
3.1188e-06
3.17316e-06
2.05447e-06
1.9592e-06
3.05718e-06
6.44327e-06
2.08796e-06
2.72615e-06
2.15709e-06
1.86812e-06
2.0028e-06
2.10999e-06
2.88994e-06
2.3222e-06
2.3979e-06
1.97629e-06
6.4127e-06
2.16225e-06
3.29198e-06
2.10223e-06
2.66566e-06
1.94415e-06
2.91865e-06
2.58116e-06
2.11703e-06
2.09534e-06
1.91719e-06
7.06046e-06
2.25203e-06
2.06378e-06
6.28159e-06
2.12147e-06
2.90924e-06
2.12921e-06
6.4487e-06
1.41701e-06
2.0682e-06
6.58062e-06
2.52584e-06
2.39732e-06
7.42191e-07
2.22368e-06
7.06751e-07
7.00657e-07
8.93749e-07
2.53536e-06
2.26535e-06
1.33607e-06
7.84725e-07
2.32303e-06
6.06694e-07
6.68276e-07
6.84307e-07
2.51242e-06
2.31629e-06
7.8367e-07
6.80839e-07
6.22692e-06
6.7471e-07
6.65305e-07
7.01158e-07
1.8232e-06
1.90695e-06
6.86722e-07
7.04792e-07
1.86445e-06
2.28572e-06
6.8045e-07
7.16005e-07
1.82373e-06
6.01079e-07
2.02791e-06
7.4579e-07
5.74423e-07
1.80052e-06
1.454e-06
2.2702e-06
1.80636e-06
2.15356e-06
1.79089e-06
1.79456e-06
6.8231e-07
2.24737e-06
1.45239e-06
1.79556e-06
6.97875e-07
6.24265e-07
6.62717e-07
1.44627e-06
1.40138e-06
2.15258e-06
1.82851e-06
1.3994e-06
1.43932e-06
2.19226e-06
6.97732e-07
1.77726e-06
1.79162e-06
6.54258e-07
7.3397e-07
2.34895e-06
7.10392e-07
6.56982e-07
6.26314e-07
2.18926e-06
6.12493e-07
6.03901e-07
5.92831e-07
5.12031e-07
5.11667e-07
4.9467e-07
4.97016e-07
4.96269e-07
5.33079e-07
4.94191e-07
4.97855e-07
4.86862e-07
4.90626e-07
4.94649e-07
4.94954e-07
4.91922e-07
4.89615e-07
4.96354e-07
4.95189e-07
4.82188e-07
1.10854e-06
5.3299e-07
5.44763e-07
5.36655e-07
5.15417e-07
5.01772e-07
5.53774e-07
5.53774e-07
5.53774e-07
5.53774e-07
5.53774e-07
5.53774e-07
5.50785e-07
5.50785e-07
7.45291e-07
7.11668e-07
4.9897e-07

NodalForce_(N) 3 343 double
-6.39357e-05 -6.63906e-06 1.73952e-07
-0.000516941 -6.53937e-05 9.48792e-07
0.000856946 -0.00166894 -0.00259832
-0.000582036 -7.39011e-05 9.4648e-06
-0.000711004 -0.000145869 5.2343e-05
-0.000741809 -0.000102469 5.11812e-05
-0.00112409 -0.000223887 3.04915e-05
-0.000693586 -0.000122201 4.65492e-06
-0.000745655 -0.000140221 5.06221e-05
-0.000415992 -5.51602e-05 1.44043e-05
-0.000231743 -3.90651e-05 1.37771e-05
-0.000977357 -0.000184357 4.62018e-05
-0.00037988 -8.17646e-05 2.86458e-05
-0.000595842 -4.4902e-05 8.05978e-05
-0.000220523 -2.98216e-05 9.61103e-06
-0.000797046 -0.000110587 5.35223e-05
-0.0006058 -8.20801e-05 1.09338e-05
-0.00040957 -4.91688e-05 4.86464e-05
0.00855622 -0.00267054 -0.00280549
-0.00021918 -3.18335e-05 1.19504e-05
-0.000660684 -0.000161848 1.38118e-06
-0.00147633 -0.000355291 4.93513e-05
0.00508621 0.00592738 0.0055967
-0.000322765 -8.20885e-05 -4.62912e-06
-0.000934653 -0.00023024 7.46884e-06
-0.000471182 -8.29924e-05 -1.42536e-06
-0.000108088 -8.75415e-06 1.13171e-05
-0.000311236 -7.38326e-05 9.58652e-06
-0.000139038 -2.46234e-06 3.9517e-06
-0.00045923 -1.27055e-05 2.1025e-06
-0.000472325 -2.99036e-05 -7.56103e-06
-0.00173217 -0.000330328 0.000167559
-0.00147897 -0.000281128 0.000114459
-0.000878969 -0.00016577 3.93796e-05
-0.000462521 -0.000123918 -5.33105e-06
-0.00110744 -0.000155411 1.5258e-05
-0.000371954 -8.14529e-05 -3.9317e-06
-0.00142864 -0.000229794 -5.77904e-05
-0.000372923 -4.0572e-05 3.13971e-05
-0.000579081 -6.69127e-05 2.78563e-05
-0.000519271 -0.000101194 4.9623e-05
-0.000841307 -4.28533e-05 4.7055e-05
-0.000514251 4.78601e-06 -1.85369e-06
-0.000117648 -1.14425e-06 1.38442e-06
-0.000509254 -1.62963e-05 1.02767e-05
-0.0028788 -0.00444095 0.00137804
-0.000207887 -1.84912e-05 1.62384e-06
0.0017006 -0.00456115 -0.00233176
-0.000488203 -2.57833e-05 3.26237e-05
-9.68645e-05 -1.81659e-07 5.20429e-06
-0.000286823 -4.34276e-05 1.8942e-05
-0.000661241 -7.47705e-05 4.2282e-05
-0.000416961 -1.57731e-05 3.89645e-06
-0.000238433 -5.76618e-06 2.86618e-06
-0.000210291 -1.27825e-05 3.34713e-06
-0.000666191 -0.00017949 6.54432e-05
0.00147321 -0.00255882 -0.0020455
-9.17599e-05 -5.84909e-06 1.43297e-06
0.00419376 -0.00147147 0.00425333
-0.000285707 -7.97437e-05 2.19649e-05
-0.000158712 -7.73543e-06 9.06906e-06
-0.000575512 -0.000145393 9.31078e-06
-0.00203828 -0.00057676 -3.79451e-05
-0.000947385 -0.000235145 1.08692e-05
-0.000525511 -0.000105365 4.5778e-05
-0.000132425 -3.03635e-06 4.85437e-06
-0.00015602 -2.79035e-05 1.72637e-05
-0.000712322 -0.000103846 4.26568e-05
-0.000429183 -0.000110761 4.78335e-06
-0.000601243 -0.000145027 4.05321e-06
-0.000115807 -1.97525e-05 -2.38895e-06
-0.000117632 -1.14778e-05 1.0633e-05
-0.00016849 -3.01051e-05 1.21819e-05
-0.00044394 -4.07288e-05 2.43429e-05
-0.000298742 -4.97055e-05 7.24647e-06
0.00116306 -0.00341267 -0.00261483
-0.000414306 -7.49593e-05 8.3952e-06
-6.42666e-05 -5.37814e-06 -7.69574e-07
-0.000363142 -3.16441e-05 2.17426e-05
-0.000319107 -2.33138e-05 3.69024e-05
-0.000270467 -5.96814e-06 1.41583e-05
-0.00026182 -9.45212e-06 7.92297e-06
-0.000531607 -0.000150365 2.31344e-05
-0.000262387 -1.61452e-05 -7.56136e-06
0.00218576 0.00208754 -0.00201
-6.09501e-05 -2.77589e-06 1.03816e-06
0.00123162 0.00103772 -0.000153796
-0.00347513 0.00151101 0.00103228
0.00360152 -0.0025387 0.00135703
-0.000134272 -1.76467e-05 -1.61925e-06
-0.000106994 5.61065e-07 2.79677e-06
-0.000438828 -3.87761e-05 1.6895e-05
-0.000446672 -3.49839e-06 1.24816e-05
-0.000293731 -5.98336e-05 1.21784e-05
-0.0020882 -0.000468163 0.000103966
-0.000416164 -0.000106444 7.44058e-06
-0.00073947 -0.000182143 2.24356e-05
-0.000308996 -8.16166e-05 8.50433e-07
0.00424776 0.000554285 -0.000287626
-0.000673617 -6.52041e-05 2.96061e-05
-0.00045423 -0.000120091 -4.50463e-06
-0.000685039 -0.00016247 -7.40933e-06
-5.76343e-05 -1.18965e-06 1.22421e-06
-0.000487152 -0.000118742 2.11224e-05
-7.76761e-05 -1.57743e-05 -6.70894e-07
-0.000444043 -0.000115668 2.11562e-06
-0.000730389 -5.60781e-05 1.28063e-06
-0.000637897 -0.000153467 1.83636e-05
-0.000821977 -0.000190167 5.65006e-05
-5.73088e-05 -1.10356e-06 4.60903e-06
-0.000324399 -5.5721e-05 -1.74136e-05
-0.000679028 -2.46528e-05 -1.38356e-05
-0.000629855 -8.09599e-05 -1.48333e-05
0.00324056 0.00104243 0.00415154
-0.000331446 -8.9935e-05 1.79879e-06
-0.000237491 -1.82671e-05 2.04324e-05
-0.000235489 -5.98778e-05 -1.01531e-05
-0.000871532 -0.000178922 1.39496e-05
-0.000320689 -7.08022e-06 -5.36424e-06
-0.000285334 -6.82165e-05 1.62391e-05
-0.000696371 -0.00017808 2.31804e-05
-0.000804241 -0.000178312 4.32071e-05
-0.000122929 -1.24624e-05 1.33681e-05
0.00105584 -0.00110396 -0.0013652
-5.05918e-05 -4.87986e-06 5.63853e-06
-0.000245238 -6.36789e-05 1.17293e-05
-0.000303289 -1.21359e-05 -1.45996e-05
0.00453745 -0.0018345 -0.000255627
-3.53999e-05 8.37331e-07 4.13508e-07
-0.00049804 -1.55476e-05 -3.46927e-06
-0.00015924 -4.31794e-05 1.73151e-05
-0.000295638 -9.15035e-05 2.42945e-05
-0.000305242 -5.91404e-05 1.17308e-05
-0.000355941 -6.45521e-05 1.98413e-05
0.00612924 0.00469024 -0.00196857
-4.40751e-05 -2.05339e-08 -1.65487e-07
0.00399266 -0.000747994 0.0010737
-0.000277933 -7.34459e-05 1.41377e-06
-0.000252521 -6.67733e-05 -6.01535e-06
-0.0007475 -0.000178125 -1.83969e-05
-0.000596667 -0.00012327 4.21363e-05
-0.000263609 -6.06481e-05 8.95419e-06
-0.000241504 -5.58348e-05 1.09522e-05
-0.000393744 -9.36061e-05 1.99946e-05
0.00436543 -0.00215115 0.00200043
-0.000481628 -0.000107218 1.89725e-05
-0.000178221 -3.94415e-05 1.20463e-05
-0.00138376 -0.000329159 -2.05496e-05
-0.000461261 -0.000124889 -4.62164e-06
-8.00543e-05 -3.0972e-06 2.26662e-06
-0.000165245 -9.05075e-07 3.04346e-07
-4.60266e-05 -5.05236e-06 3.54458e-06
0.00310957 -0.00188184 -0.000356687
-0.0001973 -4.83192e-05 1.21746e-05
-0.000202034 -2.26366e-05 1.62465e-06
-0.00020631 -4.06425e-05 1.97702e-05
-0.000828305 0.00237672 -0.000407162
0.0141425 -0.00579281 -0.00985769
-0.000190547 -2.72132e-05 1.1778e-05
-0.000503136 -0.000124462 2.34249e-05
-0.00010697 -2.41485e-05 8.73643e-06
-9.26903e-05 5.40786e-07 -4.74564e-07
-0.000265485 -7.29064e-05 -7.51326e-06
-0.00011829 -1.09688e-05 6.32581e-06
-0.000287768 -8.58481e-05 2.89797e-05
-0.000224558 -5.31877e-05 1.97168e-05
-0.000358367 -9.75724e-05 -1.1295e-05
-0.00014261 -8.45679e-06 -4.69436e-07
-0.000230538 -2.22943e-05 -1.11247e-05
-0.000145024 -1.69265e-05 -2.3387e-06
-0.000157713 -1.57182e-05 -7.01193e-06
-0.000530103 -8.44306e-05 -1.38334e-06
-0.000241943 -6.50154e-05 -4.4124e-06
-0.000140077 -6.43954e-06 2.97203e-06
-0.00020347 -8.17761e-06 6.59166e-06
-8.29008e-05 -7.73786e-06 3.20789e-06
-0.000164821 -3.36836e-05 2.31067e-05
-0.000100984 -1.46548e-05 1.3611e-05
-0.000384704 -9.96771e-05 1.69136e-06
0.00186664 0.00362517 0.00172521
-0.000503128 -0.000117711 3.80648e-05
-0.000417371 -0.000112807 -1.59837e-05
-0.000496404 -0.000145447 -1.20027e-05
0.00238161 0.000692086 -0.00210035
-6.07302e-05 -5.98669e-07 2.99679e-07
-0.000249705 -5.78975e-05 8.21866e-06
-0.000461325 -0.000107348 2.06234e-05
-0.000302264 -6.74484e-05 1.96432e-05
-0.000217583 -1.50803e-05 6.67333e-06
-0.000445999 -3.0667e-05 8.66901e-06
-0.000170941 -9.37263e-06 4.15274e-06
-0.000194644 -2.83351e-05 1.18225e-05
-0.000110185 1.58587e-06 2.12415e-06
-0.000177362 -2.55249e-05 -4.49631e-06
-8.88386e-05 -1.66917e-05 8.2091e-06
-0.000109503 -2.147e-05 1.08663e-05
-0.000308427 -8.66517e-05 -9.99426e-06
-0.000323974 -7.19665e-07 -1.11424e-06
-0.000309219 -8.27559e-05 8.33804e-06
-0.000213654 -3.90867e-05 -9.70075e-06
-0.000240152 -4.69417e-05 -4.97969e-06
0.00250091 0.000692583 -0.0012266
-7.7928e-05 -6.07865e-07 1.58547e-06
0.00278657 -0.0013327 0.000822673
-0.0001271 -6.66055e-07 -2.83879e-06
-0.000191909 1.54132e-06 -1.81338e-06
-0.000485763 -7.34129e-05 -3.67468e-06
-0.000232419 -5.48432e-05 -8.14726e-06
-0.000271936 -6.66703e-05 1.41815e-05
-0.000214927 -5.20876e-05 1.54879e-05
-4.68553e-05 -1.30214e-06 6.62623e-07
-0.000274524 -8.05789e-05 -9.6712e-06
-0.00032053 -7.49198e-05 1.8605e-05
-0.000239716 -3.56557e-05 4.09261e-06
-0.00022498 -3.64826e-05 8.20906e-06
-0.000118858 -2.21581e-05 4.53834e-06
-0.000317151 -7.45262e-05 1.88319e-05
-0.000245689 -2.81052e-05 6.90067e-06
-0.000198409 -4.13347e-05 -6.5321e-06
-0.00039578 -0.000100103 -1.88538e-05
-0.000147655 -8.53269e-06 1.00339e-05
-0.000401596 -9.91304e-05 2.83563e-05
-0.000139733 -2.95096e-06 1.2194e-06
-0.000352576 -8.65405e-05 1.08585e-05
-0.000118978 -1.87016e-06 3.46951e-06
0.0037643 -0.00171575 -0.00282364
-0.000142436 -4.97226e-06 5.53608e-06
-0.000189626 -4.36435e-05 1.17931e-05
-0.000390404 -4.66129e-05 -1.68422e-06
-0.000135412 -5.01275e-06 3.62322e-06
-0.000159548 -3.5935e-05 1.38085e-05
-0.000357432 -3.51854e-05 1.53937e-05
0.00468048 0.0107851 -0.00144943
0.00448326 -0.0041221 0.00495281
-0.000160745 -1.77376e-05 -5.87967e-06
-0.00046315 -4.12102e-05 -1.57197e-06
-0.000137964 -3.39657e-05 5.10288e-06
-0.000293297 -7.33829e-05 1.39363e-05
-0.000367118 -2.71958e-05 7.0379e-06
-0.000233256 -2.51754e-05 1.07802e-05
-0.000339276 -9.4819e-05 -1.14906e-05
-0.00359679 0.00088453 -0.00329457
-0.000257916 -5.65028e-05 -1.35045e-05
-4.70091e-05 -1.12169e-05 5.34143e-07
-0.00344189 0.00324582 -0.00104003
-6.27973e-05 -2.81767e-06 2.84468e-06
0.00273774 0.00512595 0.000142827
-0.000301426 -8.02003e-05 -1.68761e-05
-0.00018625 -5.29286e-05 -1.02523e-05
-0.00145361 0.000203781 0.00147725
-0.000197236 -4.59686e-05 -4.78505e-06
4.46258e-05 -0.000433847 -0.000612288
-0.000108322 -2.72718e-05 2.16131e-06
-7.88969e-05 -2.47365e-05 5.77743e-06
-0.000161869 -2.20082e-06 -2.58548e-06
-0.000360055 -8.8433e-05 1.8848e-05
-7.3895e-05 -1.87985e-05 1.57916e-07
0.000175696 0.000327214 0.000852723
-0.000374248 -4.78847e-05 2.33605e-05
-6.16469e-05 -1.25343e-05 3.12413e-06
-0.000110518 -2.57634e-05 5.43412e-06
-0.000137647 -0.00140351 -1.36516e-05
-0.000187856 -3.31865e-05 -5.51257e-06
-0.000239586 -5.53842e-05 -1.32601e-05
-0.000112814 -2.69525e-05 2.40137e-06
-0.000103652 -2.91897e-05 -4.64381e-06
-4.37908e-05 -6.78397e-06 -1.3778e-07
0.00759951 -0.000304298 0.00164906
-0.000426753 -0.000522877 0.00138513
-0.00271817 -0.00219157 0.00273928
-0.000203804 -3.32177e-05 -1.1018e-05
-6.94388e-05 -1.82263e-05 -1.29708e-06
-0.000125087 -1.28594e-06 2.095e-06
-0.000105837 -2.99291e-05 9.29011e-06
-0.00147027 0.00372869 -0.00195577
0.00443785 -0.000351436 0.000473288
-3.5842e-05 -3.46835e-06 4.46122e-06
-5.62703e-05 -1.64994e-06 5.77411e-06
-0.000179185 -5.3283e-05 2.68821e-05
-4.09844e-05 -5.70201e-08 -2.53657e-08
0.00701035 -0.00293815 0.00068618
-0.000220013 -7.31546e-05 2.58586e-05
-5.71107e-05 -2.64818e-06 -2.64956e-06
-0.000355569 -9.89248e-05 -9.38785e-06
-2.95013e-05 1.26105e-07 9.36485e-08