# vtk DataFile Version 4.2
vtk output
ASCII
DATASET UNSTRUCTURED_GRID

POINTS 343 double
0.00112244 0.00419494 7.89282e-08
0.00217098 0.00498257 0.00217531
0 0.00419538 0.00112517
0.00193017 0.00195452 0.00194212
0.0051703 0.00240752 0.00503181
0.00517288 0.00383055 0.00639706
0.00762282 0.00477661 0.00499783
0.00622446 0.00485116 0.00369112
0.00683739 0.00328964 0.00691303
0.00499118 0.00499295 0.00499943
0.004182 0.00111871 0.00999864
0.00528245 0.002081 0.00790347
0.00419194 -6.79049e-06 0.00831677
0.00201275 0.00200254 0.00803319
0.0042875 0.00253333 0.00999865
0.00695667 0.00644766 0.00694593
0.00641351 0.00618315 0.00518232
0.00226085 0.00218471 0.00514606
0 0.00143586 0.00417514
0.00159465 0.00346617 0.00403703
0.00683745 0.00319501 0.00316065
0.00774659 0.00221447 0.00506277
0 0.00270918 0.00154168
0.00415836 0.00142909 -1.63273e-07
0.00500818 0.00218851 0.00219749
0.00396235 0.00352701 0.0016028
0.00134565 -5.68444e-07 0.00406
0.00418411 -7.16678e-06 0.00168791
0.00262564 0.00695173 1.53061e-08
0.00193801 0.00805276 0.00194487
0.00408705 0.00624827 0.00164478
0.00800276 0.00798713 0.00799582
0.00796587 0.0048168 0.00802086
0.00838825 0.00608088 0.00594646
0.00999729 0.00882728 0.0041899
0.00757605 0.00763669 0.00496254
0.0085649 0.00998141 0.004165
0.00797471 0.00797226 0.00201466
0.00353661 0.00303677 0.00695931
0.00443833 0.00366225 0.00832352
0.00389328 0.00160096 0.00596881
0.00500551 0.00766871 0.0076761
0.00198968 0.00800793 0.0079896
0.00282711 0.00999746 0.00712706
0.00391625 0.00839978 0.00595759
0 0.00695361 0.00262895
0.00164644 0.00623929 0.00408787
0 0.0040177 0.00850214
0.00231522 0.00498576 0.00766144
0.00143352 0.0041745 0.00999992
0.00717555 0.00711897 0.00999653
0.00611878 0.00597134 0.00841641
0.00205178 0.00794145 0.00474181
0.00304373 0.00694298 0.00646759
0.00158697 0.00607838 0.00592599
0.00998977 0.00578544 0.0083124
0 0.00718191 0.00711644
0.00158434 0.00577348 1.93133e-08
0 0.00577432 0.00158701
0.00999368 0.00715914 0.00711188
0.00286825 0.00334944 0.00999944
0.00997139 0.00141109 0.00417198
0.00803669 0.00194435 0.00197762
0.0083897 0.00350347 0.00399673
0.00372649 0.00164841 0.00412815
0.00150919 0.00999969 0.005815
0.00281065 -3.2831e-06 0.00712759
0.00611096 0.00417211 0.0083749
0.00999175 0.00725118 0.0041922
0.00853039 -2.03646e-05 0.00416582
0.00334136 0.0028699 -7.70139e-08
0.0027013 0.00153906 0.00999949
0.00281917 -3.65434e-06 0.00283194
0.00479848 0.00519441 0.00755366
0.00315836 0.00314644 0.00316725
0 0.00849157 0.00581511
0.00486504 0.00366996 0.00378579
0.00153697 0.00270868 1.84043e-08
0.00580009 0.00831657 0.00999739
0.00598438 0.00999002 0.00850391
0.00421381 0.00999445 0.00831682
0.00401814 0.00849866 0.00999847
0.00999727 0.00846858 0.00581091
0.00314719 0.00683364 0.00315076
0 0.00748929 0.00137438
0.00137314 0.00748898 1.15565e-08
0 0.00287343 0.00335182
0 0.00580816 0.00831736
0 0.00429792 0.00253898
0.00253312 0.00429601 4.08871e-08
0.0014341 0.00581919 0.00999993
0.00517545 0.006469 0.0063995
0.0036037 0.0065095 0.00823349
0.00693472 0.00261409 0.00999689
0.00800178 0.00194119 0.00803253
0.00694336 -1.52036e-05 0.00308083
0.00600163 0.00165337 0.003612
0.00997572 0.00284939 0.00334887
0 0.00140616 0.00256446
0.00637286 0.00821744 0.0064194
0.00579674 0.00142424 -3.49213e-07
0.00602187 0.00354176 0.00160242
0.00315662 0.00999672 0.00582497
0.00856079 0.0099816 0.00583008
0.00255398 0.00140324 3.82928e-08
0.00595098 -1.21163e-05 0.00149375
0.00627908 0.00827745 0.00361613
0.00852636 -2.01977e-05 0.00583062
0.00618831 0.00166152 0.00636388
0.00140263 0.00256407 0.00999998
0.00710907 0.00716868 -1.30729e-06
0.00516395 0.00768274 0.00216824
0.00593526 0.00608439 0.00160101
0 0.00686719 0.00578184
0.00997008 0.00138119 0.00256182
0.00177244 0.00360992 0.00640782
0.00999491 0.00846361 0.00262048
0.00840271 0.00617184 0.00413042
0.00598066 0.0099894 0.00149278
0.00694454 -1.49063e-05 0.00692452
0.00997266 0.00141089 0.00581589
0.00838044 0.0035554 0.00605809
0.00150224 -7.13931e-07 0.00581517
0 0.0013659 0.00748679
0.00136409 -5.87533e-07 0.00752891
0.00999153 0.00684434 0.00577773
0.005813 0.00848186 -8.78241e-07
0 0.0075208 0.00859127
0.00136532 0.00748646 0.00999985
0.00423024 0.00820063 0.00362791
0.00859488 0.00998149 0.00750842
0.00999914 0.00860737 0.00752155
0.00575764 0.00157652 0.00999763
0.00724746 0.00417456 0.00999663
0 0.0057735 0.00666667
0.00137024 0.00999963 0.00752891
0 0.00863025 0.00752641
0.00855583 -2.07471e-05 0.00250564
0.00998947 0.00693044 0.00262584
0.00844899 0.00632435 0.00216085
0.00850162 0.00580641 0.0099957
0.0074687 0.00135835 0.00999642
0.00856034 -2.0368e-05 0.00750862
0.00997366 0.00134137 0.00748229
0 0.00143551 0.00581971
0.00595499 -1.1653e-05 0.00850389
0.00419437 -7.18389e-06 0.00339968
0.00791934 0.00469153 0.00203283
0.00998006 0.00427441 0.00253613
0.00423097 0.00999426 0.00666577
0.00283582 0.00999751 0.00283181
0.00130724 -6.22443e-07 0.00241831
0 0.00727418 0.00419576
0.00998834 0.0057507 0.00666229
0.00697531 0.00998647 0.00307998
0.0075088 0.00862259 0.00999626
0 0.00574334 0.00336387
0 0.0043297 0.00416652
0.00686334 0.00577238 0.00999688
0.00997894 0.00299849 0.00691096
0.00420775 -6.96751e-06 0.00666611
0.0024803 0.00999782 0.00861121
0.0074595 0.00134929 -9.71486e-07
0.00577133 0.00665823 0.00999743
0.00999604 0.00749812 0.00858611
0.00860629 0.00753587 0.00999554
0.00689443 0.00300854 -7.47616e-07
0.00335809 0.00574057 -5.50667e-09
0.00752309 0.00861524 -1.63995e-06
0.00751636 0.00998444 0.00138553
0.00577515 0.00685819 -7.98809e-07
0.00696705 0.00635839 0.00303196
0.00748345 -1.73093e-05 0.0013866
0.00288109 0.00499726 0.00999934
0.00432644 0.00582893 0.00999841
0.00432265 0.00416185 0.00999847
0.00752117 0.00998501 0.00861263
0.00246604 -2.74952e-06 0.00861141
0.00998566 0.00572026 0.00336072
0 0.00302218 0.00691532
0.00998357 0.00399457 0.00849719
0.00848154 0.00399904 -1.5556e-06
0.00997385 0.00268482 0.00153924
0 0.00244495 0.00857025
0.00244626 0.00856834 0.00999931
0.00748834 -1.68048e-05 0.00861259
0.00846879 0.00260533 0.00999573
0.00883767 0.00417479 0.00999545
0.00567439 0.0099906 0.00583195
0.00518435 0.00757637 0.00503147
0.00564582 0.00999054 0.00421411
0.00697641 0.00998679 0.00692418
0.0030212 0.00691341 0.00999909
0.00415643 0.00432495 -8.32788e-08
0.00282229 -3.76163e-06 0.00440465
0.00313878 -4.18961e-06 0.00582538
0.00997872 0.00417161 0.00112267
0.00363696 0.00833349 0.00158798
0.00998139 0.00430632 0.0041632
0.00665521 0.00576176 -8.72951e-07
0.00859048 0.0099811 0.00250459
0 0.00848692 0.00262374
0.00135192 0.00999968 0.00405987
0 0.00885053 0.00419359
0.0041932 0.00884476 -3.63894e-07
0.00420703 0.00999409 0.00168726
0.00498944 0.00478489 0.00237836
0.00720301 0.00450772 -9.71464e-07
0.00561773 -1.11094e-05 0.00421488
0.00564638 -1.10371e-05 0.00583238
0.00131335 0.00999969 0.00241807
0.00854413 0.00242536 -1.46975e-06
0.00998438 0.00449868 0.00721504
0.0071185 0.00998622 0.00499816
0.00573187 0.00335494 0.00999766
0.00244614 -2.98003e-06 0.00135663
0.00997815 0.002421 0.00856536
0.00239178 0.00478986 0.00499984
0.00581892 0.00432063 -4.57621e-07
0.00830331 0.00579061 -1.72588e-06
0.0054839 0.00999127 0.00721888
0.00998263 0.0043069 0.00582936
0.00540542 0.00999108 0.00277466
0.00708625 -1.54633e-05 0.00499883
0.00283846 0.00999752 0.00440424
0 0.00452174 0.00721958
0.00452073 0.00721492 0.00999824
0.0054564 -1.03157e-05 0.0072189
0.00359786 0.00507068 0.00359635
0.00425529 0.00999421 0.00500757
0.00423147 -7.13913e-06 0.0050082
0.00366639 0.00521365 0.00617422
0 0.005744 0.00499998
0 0.00433013 0.00583333
0.00499131 0.00573756 -3.2037e-07
0.0049797 0.00633279 0.00355322
0.00537784 -1.05173e-05 0.0027755
0.00998694 0.00572109 0.00499622
0.00368767 0.00640458 0.00484363
0.00573718 0.00499188 0.00999758
0.00998452 0.00575103 0.00158429
0 0.00666667 0
0.0085828 0.00750245 -2.10883e-06
0.00331665 -5.52988e-06 4.71797e-07
0 0.01 0.00666667
0.00500632 0.0099923 0.00999808
0 0.00288419 0.00499914
0.00999049 0.00746599 0.00137154
0.0099867 0.00664331 -2.79743e-06
0 0.005 0.01
0.00498286 0.00287643 -2.67408e-07
0 0.005 0
0.00996577 -2.55661e-05 0.0033306
0.0100033 0.00997648 0.00666203
0.00419179 0.00726932 -2.89973e-07
0.00997695 0.00286034 0.00499558
0.00497635 -9.89247e-06 1.79259e-07
0 0 0.00666667
0.00379075 0.00361295 0.00522603
0.00498118 -9.43188e-06 0.00999776
0.00996829 -2.53191e-05 0.00666253
0 0 0.005
0.00878068 0.00998024 0.00121762
0.00999498 0.0087563 0.00121709
0.009967 -2.54052e-05 0.00499659
0.00998085 0.00497628 -2.5607e-06
0.00121557 0.00121932 -1.76924e-08
0 0.00122008 0.00122008
0 0.00333333 0.01
0 0.00666667 0.01
0.00877566 0.00876047 -2.36676e-06
0.0100008 0.00997612 0.00332971
0.00421802 0.00999417 0.00339913
0.00999409 0.00664409 0.00999457
0 0.00333333 0
0 0.00122008 0.00877992
0.00121532 -7.43059e-07 0.00877968
0.00121644 0.00121956 0.0100001
0.00878615 0.00998082 0.00877565
0.00122009 0.00877949 0.00999986
0 0.00877992 0.00877992
0.0100007 0.00875699 0.00877471
0.00666835 0.00998702 -1.57239e-06
0.00996841 0.00119484 0.00121784
0.00122092 0.00999949 0.00878003
0.00878294 0.00876127 0.00999543
0.0099882 0.00497717 0.00999461
0 0 0.00333333
0.00663706 -1.46764e-05 -2.83394e-07
0.00874589 -2.15996e-05 0.00121877
0.00120613 -7.98972e-07 0.00121202
0 0.00877992 0.00122008
0.00121962 0.00877941 7.88689e-08
0.00121196 0.00999955 0.0012114
0.00997407 0.0011954 0.00877485
0.00875652 0.00119955 0.00999543
0.00664333 -1.42424e-05 0.00999653
0.00874923 0.00119897 -1.45564e-06
0.00875148 -2.11052e-05 0.00877553
0.00997505 0.00330914 -2.35674e-06
0.00333804 0.00999593 0.0099992
0.00246081 0.00999802 0.00135622
0.0066743 0.00998773 0.00999704
0.00998234 0.00330998 0.00999462
0 0.01 0.005
0.00262298 0.00848475 2.89871e-09
0.010002 0.00997632 0.00499595
0 0.01 0.00333333
0 0.00166667 0
0.00996455 -2.57942e-05 0.00166448
0 0.00166667 0.01
0 0.00833333 0
0.00999266 0.00830969 -2.99828e-06
0.00996955 -2.5361e-05 0.00832831
0.00999963 0.00997592 0.00166345
0.0100046 0.00997652 0.00832823
0.00166889 0.00999863 0.00999979
0 0.01 0.00833333
0.00833385 0.00998158 -2.30873e-06
0.00829951 -2.03338e-05 -1.07185e-06
0.00830664 -1.98361e-05 0.00999549
0.00834071 0.0099822 0.00999579
0 0 0.00833333
0.0100001 0.00831053 0.00999452
0.00165812 -1.94177e-06 1.69172e-07
0 0 0.00166667
0.00333576 0.00999603 -2.46641e-07
0.00997653 0.00164213 0.00999457
0.00996919 0.00164149 -2.21412e-06
0.00165973 -1.5808e-06 0.00999989
0.00166788 0.00999889 -7.76487e-09
0 0.01 0.00166667
0.0100059 0.00997658 0.00999458
0 0 0.01
0.00999853 0.00997573 -3.26194e-06
0.00997076 -2.5478e-05 0.00999432
0 0.01 0.01
0.00996339 -2.5958e-05 -1.98109e-06
0 0.01 0
0 0 0
0.00500223 0.00999183 -8.1109e-07
0.00332006 -5.0175e-06 0.00999876
0 0.00833333 0.01

CELLS 343 686
1 0
1 1
1 2
1 3
1 4
1 5
1 6
1 7
1 8
1 9
1 10
1 11
1 12
1 13
1 14
1 15
1 16
1 17
1 18
1 19
1 20
1 21
1 22
1 23
1 24
1 25
1 26
1 27
1 28
1 29
1 30
1 31
1 32
1 33
1 34
1 35
1 36
1 37
1 38
1 39
1 40
1 41
1 42
1 43
1 44
1 45
1 46
1 47
1 48
1 49
1 50
1 51
1 52
1 53
1 54
1 55
1 56
1 57
1 58
1 59
1 60
1 61
1 62
1 63
1 64
1 65
1 66
1 67
1 68
1 69
1 70
1 71
1 72
1 73
1 74
1 75
1 76
1 77
1 78
1 79
1 80
1 81
1 82
1 83
1 84
1 85
1 86
1 87
1 88
1 89
1 90
1 91
1 92
1 93
1 94
1 95
1 96
1 97
1 98
1 99
1 100
1 101
1 102
1 103
1 104
1 105
1 106
1 107
1 108
1 109
1 110
1 111
1 112
1 113
1 114
1 115
1 116
1 117
1 118
1 119
1 120
1 121
1 122
1 123
1 124
1 125
1 126
1 127
1 128
1 129
1 130
1 131
1 132
1 133
1 134
1 135
1 136
1 137
1 138
1 139
1 140
1 141
1 142
1 143
1 144
1 145
1 146
1 147
1 148
1 149
1 150
1 151
1 152
1 153
1 154
1 155
1 156
1 157
1 158
1 159
1 160
1 161
1 162
1 163
1 164
1 165
1 166
1 167
1 168
1 169
1 170
1 171
1 172
1 173
1 174
1 175
1 176
1 177
1 178
1 179
1 180
1 181
1 182
1 183
1 184
1 185
1 186
1 187
1 188
1 189
1 190
1 191
1 192
1 193
1 194
1 195
1 196
1 197
1 198
1 199
1 200
1 201
1 202
1 203
1 204
1 205
1 206
1 207
1 208
1 209
1 210
1 211
1 212
1 213
1 214
1 215
1 216
1 217
1 218
1 219
1 220
1 221
1 222
1 223
1 224
1 225
1 226
1 227
1 228
1 229
1 230
1 231
1 232
1 233
1 234
1 235
1 236
1 237
1 238
1 239
1 240
1 241
1 242
1 243
1 244
1 245
1 246
1 247
1 248
1 249
1 250
1 251
1 252
1 253
1 254
1 255
1 256
1 257
1 258
1 259
1 260
1 261
1 262
1 263
1 264
1 265
1 266
1 267
1 268
1 269
1 270
1 271
1 272
1 273
1 274
1 275
1 276
1 277
1 278
1 279
1 280
1 281
1 282
1 283
1 284
1 285
1 286
1 287
1 288
1 289
1 290
1 291
1 292
1 293
1 294
1 295
1 296
1 297
1 298
1 299
1 300
1 301
1 302
1 303
1 304
1 305
1 306
1 307
1 308
1 309
1 310
1 311
1 312
1 313
1 314
1 315
1 316
1 317
1 318
1 319
1 320
1 321
1 322
1 323
1 324
1 325
1 326
1 327
1 328
1 329
1 330
1 331
1 332
1 333
1 334
1 335
1 336
1 337
1 338
1 339
1 340
1 341
1 342

CELL_TYPES 343
1
1
1
1
1
1
1
1
1
1
1
1
1
1
1
1
1
1
1
1
1
1
1
1
1
1
1
1
1
1
1
1
1
1
1
1
1
1
1
1
1
1
1
1
1
1
1
1
1
1
1
1
1
1
1
1
1
1
1
1
1
1
1
1
1
1
1
1
1
1
1
1
1
1
1
1
1
1
1
1
1
1
1
1
1
1
1
1
1
1
1
1
1
1
1
1
1
1
1
1
1
1
1
1
1
1
1
1
1
1
1
1
1
1
1
1
1
1
1
1
1
1
1
1
1
1
1
1
1
1
1
1
1
1
1
1
1
1
1
1
1
1
1
1
1
1
1
1
1
1
1
1
1
1
1
1
1
1
1
1
1
1
1
1
1
1
1
1
1
1
1
1
1
1
1
1
1
1
1
1
1
1
1
1
1
1
1
1
1
1
1
1
1
1
1
1
1
1
1
1
1
1
1
1
1
1
1
1
1
1
1
1
1
1
1
1
1
1
1
1
1
1
1
1
1
1
1
1
1
1
1
1
1
1
1
1
1
1
1
1
1
1
1
1
1
1
1
1
1
1
1
1
1
1
1
1
1
1
1
1
1
1
1
1
1
1
1
1
1
1
1
1
1
1
1
1
1
1
1
1
1
1
1
1
1
1
1
1
1
1
1
1
1
1
1
1
1
1
1
1
1
1
1
1
1
1
1
1
1
1
1
1
1
1
1
1
1
1
1
1
1
1
1
1
1
1
1
1
1
1
1
1
1
1
1
1
1
1
1
1
1
1
1

POINT_DATA 343
FIELD FieldData 8

NodeID_(#) 1 343 int
0
1
2
3
4
5
6
7
8
9
10
11
12
13
14
15
16
17
18
19
20
21
22
23
24
25
26
27
28
29
30
31
32
33
34
35
36
37
38
39
40
41
42
43
44
45
46
47
48
49
50
51
52
53
54
55
56
57
58
59
60
61
62
63
64
65
66
67
68
69
70
71
72
73
74
75
76
77
78
79
80
81
82
83
84
85
86
87
88
89
90
91
92
93
94
95
96
97
98
99
100
101
102
103
104
105
106
107
108
109
110
111
112
113
114
115
116
117
118
119
120
121
122
123
124
125
126
127
128
129
130
131
132
133
134
135
136
137
138
139
140
141
142
143
144
145
146
147
148
149
150
151
152
153
154
155
156
157
158
159
160
161
162
163
164
165
166
167
168
169
170
171
172
173
174
175
176
177
178
179
180
181
182
183
184
185
186
187
188
189
190
191
192
193
194
195
196
197
198
199
200
201
202
203
204
205
206
207
208
209
210
211
212
213
214
215
216
217
218
219
220
221
222
223
224
225
226
227
228
229
230
231
232
233
234
235
236
237
238
239
240
241
242
243
244
245
246
247
248
249
250
251
252
253
254
255
256
257
258
259
260
261
262
263
264
265
266
267
268
269
270
271
272
273
274
275
276
277
278
279
280
281
282
283
284
285
286
287
288
289
290
291
292
293
294
295
296
297
298
299
300
301
302
303
304
305
306
307
308
309
310
311
312
313
314
315
316
317
318
319
320
321
322
323
324
325
326
327
328
329
330
331
332
333
334
335
336
337
338
339
340
341
342

Component_(#) 1 343 int
0
0
0
0
0
0
0
0
0
0
0
0
0
0
0
0
0
0
0
0
0
0
0
0
0
0
0
0
0
0
0
0
0
0
0
0
0
0
0
0
0
0
0
0
0
0
0
0
0
0
0
0
0
0
0
0
0
0
0
0
0
0
0
0
0
0
0
0
0
0
0
0
0
0
0
0
0
0
0
0
0
0
0
0
0
0
0
0
0
0
0
0
0
0
0
0
0
0
0
0
0
0
0
0
0
0
0
0
0
0
0
0
0
0
0
0
0
0
0
0
0
0
0
0
0
0
0
0
0
0
0
0
0
0
0
0
0
0
0
0
0
0
0
0
0
0
0
0
0
0
0
0
0
0
0
0
0
0
0
0
0
0
0
0
0
0
0
0
0
0
0
0
0
0
0
0
0
0
0
0
0
0
0
0
0
0
0
0
0
0
0
0
0
0
0
0
0
0
0
0
0
0
0
0
0
0
0
0
0
0
0
0
0
0
0
0
0
0
0
0
0
0
0
0
0
0
0
0
0
0
0
0
0
0
0
0
0
0
0
0
0
0
0
0
0
0
0
0
0
0
0
0
0
0
0
0
0
0
0
0
0
0
0
0
0
0
0
0
0
0
0
0
0
0
0
0
0
0
0
0
0
0
0
0
0
0
0
0
0
0
0
0
0
0
0
0
0
0
0
0
0
0
0
0
0
0
0
0
0
0
0
0
0
0
0
0
0
0
0
0
0
0
0
0
0
0
0
0
0
0
0
0
0
0
0
0
0
0
0
0
0
0
0

NodalMass_(kg) 1 343 double
3.15563e-06
1.41304e-05
2.20912e-06
1.71484e-05
8.42e-06
9.09306e-06
9.93033e-06
7.52198e-06
6.81096e-06
5.58223e-06
3.10888e-06
1.07575e-05
4.87011e-06
1.64955e-05
3.0246e-06
8.05984e-06
6.703e-06
1.0877e-05
4.18978e-06
8.16106e-06
6.14143e-06
1.17902e-05
2.23114e-06
4.25176e-06
1.09915e-05
7.41467e-06
4.21871e-06
3.92484e-06
3.08766e-06
1.31268e-05
7.72627e-06
1.65404e-05
1.19037e-05
7.29666e-06
3.81683e-06
1.11001e-05
3.81317e-06
1.39137e-05
6.37414e-06
8.00975e-06
7.6712e-06
1.18847e-05
1.6399e-05
2.78633e-06
8.93599e-06
2.58087e-06
7.57362e-06
4.23241e-06
1.31286e-05
3.80168e-06
2.7746e-06
7.16776e-06
1.21307e-05
5.11765e-06
8.19728e-06
4.58094e-06
2.79503e-06
3.26126e-06
4.12443e-06
2.11915e-06
3.35177e-06
3.61669e-06
1.56838e-05
7.33679e-06
8.24695e-06
5.00369e-06
2.82625e-06
7.20276e-06
3.26815e-06
4.18751e-06
2.02785e-06
2.42152e-06
3.11835e-06
5.97459e-06
5.87101e-06
4.09374e-06
5.45463e-06
2.28825e-06
4.49759e-06
4.38192e-06
4.50892e-06
4.39234e-06
4.27273e-06
5.32031e-06
1.53201e-06
2.38869e-06
2.02885e-06
4.38798e-06
3.17972e-06
3.14298e-06
4.61567e-06
5.87645e-06
8.18088e-06
2.48341e-06
1.53815e-05
3.49683e-06
7.35227e-06
2.01314e-06
2.0408e-06
7.98183e-06
4.41293e-06
7.1389e-06
1.20123e-06
5.03343e-06
1.61257e-06
4.12601e-06
8.73748e-06
4.37849e-06
7.97173e-06
2.13557e-06
3.38137e-06
9.48623e-06
7.40262e-06
1.80226e-06
2.10222e-06
7.98889e-06
1.87983e-06
7.44814e-06
4.19782e-06
2.37156e-06
4.31705e-06
6.06441e-06
4.30905e-06
2.16843e-06
1.8986e-06
1.81294e-06
3.89762e-06
2.44299e-06
1.65628e-06
8.01374e-06
1.64513e-06
2.3931e-06
3.01363e-06
2.99431e-06
1.36541e-06
1.87293e-06
2.09622e-06
1.94762e-06
1.87618e-06
6.37913e-06
4.58628e-06
2.02767e-06
1.61999e-06
2.41284e-06
3.8865e-06
4.44973e-06
2.29839e-06
1.17349e-05
3.11811e-06
1.354e-06
3.45063e-06
1.81846e-06
2.9382e-06
1.37381e-06
2.41464e-06
2.10451e-06
2.63927e-06
2.14166e-06
1.7943e-06
3.19976e-06
1.36989e-06
2.43489e-06
2.08158e-06
1.3601e-06
2.17203e-06
1.89924e-06
3.16996e-06
2.6119e-06
2.37677e-06
1.60225e-06
1.90684e-06
5.49206e-06
1.87878e-06
3.14313e-06
2.97301e-06
1.18454e-06
1.89263e-06
2.04166e-06
2.73572e-06
2.42405e-06
3.23083e-06
3.19752e-06
3.2142e-06
1.94492e-06
1.61196e-06
1.86876e-06
3.22435e-06
2.1114e-06
2.96917e-06
6.15288e-06
2.3097e-06
2.39729e-06
2.38029e-06
2.64508e-06
1.66557e-06
1.82377e-06
2.06583e-06
5.73271e-06
2.08467e-06
2.18324e-06
2.43522e-06
3.1188e-06
3.17316e-06
2.05447e-06
1.9592e-06
3.05718e-06
6.44327e-06
2.08796e-06
2.72615e-06
2.15709e-06
1.86812e-06
2.0028e-06
2.10999e-06
2.88994e-06
2.3222e-06
2.3979e-06
1.97629e-06
6.4127e-06
2.16225e-06
3.29198e-06
2.10223e-06
2.66566e-06
1.94415e-06
2.91865e-06
2.58116e-06
2.11703e-06
2.09534e-06
1.91719e-06
7.06046e-06
2.25203e-06
2.06378e-06
6.28159e-06
2.12147e-06
2.90924e-06
2.12921e-06
6.4487e-06
1.41701e-06
2.0682e-06
6.58062e-06
2.52584e-06
2.39732e-06
7.42191e-07
2.22368e-06
7.06751e-07
7.00657e-07
8.93749e-07
2.53536e-06
2.26535e-06
1.33607e-06
7.84725e-07
2.32303e-06
6.06694e-07
6.68276e-07
6.84307e-07
2.51242e-06
2.31629e-06
7.8367e-07
6.80839e-07
6.22692e-06
6.7471e-07
6.65305e-07
7.01158e-07
1.8232e-06
1.90695e-06
6.86722e-07
7.04792e-07
1.86445e-06
2.28572e-06
6.8045e-07
7.16005e-07
1.82373e-06
6.01079e-07
2.02791e-06
7.4579e-07
5.74423e-07
1.80052e-06
1.454e-06
2.2702e-06
1.80636e-06
2.15356e-06
1.79089e-06
1.79456e-06
6.8231e-07
2.24737e-06
1.45239e-06
1.79556e-06
6.97875e-07
6.24265e-07
6.62717e-07
1.44627e-06
1.40138e-06
2.15258e-06
1.82851e-06
1.3994e-06
1.43932e-06
2.19226e-06
6.97732e-07
1.77726e-06
1.79162e-06
6.54258e-07
7.3397e-07
2.34895e-06
7.10392e-07
6.56982e-07
6.26314e-07
2.18926e-06
6.12493e-07
6.03901e-07
5.92831e-07
5.12031e-07
5.11667e-07
4.9467e-07
4.97016e-07
4.96269e-07
5.33079e-07
4.94191e-07
4.97855e-07
4.86862e-07
4.90626e-07
4.94649e-07
4.94954e-07
4.91922e-07
4.89615e-07
4.96354e-07
4.95189e-07
4.82188e-07
1.10854e-06
5.3299e-07
5.44763e-07
5.36655e-07
5.15417e-07
5.01772e-07
5.53774e-07
5.53774e-07
5.53774e-07
5.53774e-07
5.53774e-07
5.53774e-07
5.50785e-07
5.50785e-07
7.45291e-07
7.11668e-07
4.9897e-07

NodalForce_(N) 3 343 double
1.60921e-07 -3.53923e-08 1.45708e-08
1.26515e-06 -4.98614e-07 3.26926e-07
0.000249981 0.000327387 0.00040165
-5.76303e-07 -6.79832e-07 3.39722e-07
-3.30445e-06 -3.22641e-06 1.60132e-06
-2.849e-06 -2.84611e-06 1.84507e-06
-4.25638e-07 -7.09536e-06 4.68787e-06
9.38018e-07 -3.45923e-06 2.26271e-06
-3.64159e-06 -4.2315e-06 2.65917e-06
-5.84478e-08 -1.48903e-06 9.64048e-07
-2.4395e-06 -1.01122e-06 5.94519e-07
-7.64843e-06 -4.60422e-06 2.65082e-06
-3.98707e-06 -1.74273e-06 7.81617e-07
-2.79678e-06 -5.64588e-07 4.5268e-07
-1.91759e-06 -7.96646e-07 6.22564e-07
2.27875e-07 -4.43175e-06 3.22425e-06
1.23305e-06 -3.10974e-06 2.10616e-06
-1.23023e-06 -5.34217e-07 2.84961e-07
-0.00117657 0.000592806 -8.54367e-05
-1.25532e-07 -1.04532e-07 3.83815e-08
-6.31046e-07 -3.91646e-06 2.35013e-06
-6.42824e-06 -1.00636e-05 5.85783e-06
-0.000451624 -0.00144317 -0.000720949
-1.49519e-07 -1.39923e-06 7.54301e-07
-1.73694e-06 -4.39924e-06 2.72576e-06
7.63807e-07 -1.38375e-06 1.21838e-06
-5.46959e-07 -7.79659e-08 4.94014e-08
-1.42357e-06 -1.36423e-06 7.31099e-07
1.06936e-06 -1.69808e-07 2.09454e-07
2.30713e-06 -2.49397e-07 3.03726e-07
2.77235e-06 -1.06983e-06 1.2986e-06
3.47182e-06 -1.26258e-05 9.1414e-06
-5.10744e-06 -9.22131e-06 6.50079e-06
8.11647e-07 -6.14833e-06 4.22489e-06
3.69402e-06 -4.5594e-06 2.99896e-06
5.9434e-06 -7.58593e-06 5.06051e-06
4.393e-06 -3.57076e-06 2.23506e-06
1.4065e-05 -1.06761e-05 7.54713e-06
-1.6266e-06 -9.04399e-07 5.54096e-07
-3.25585e-06 -1.74278e-06 1.54802e-06
-3.31503e-06 -1.91282e-06 7.25075e-07
1.32348e-06 -3.41182e-06 2.64521e-06
4.26478e-07 -5.13152e-07 2.87186e-07
7.61571e-07 -2.86894e-07 1.08e-07
2.4895e-06 -1.6163e-06 8.38982e-07
0.000840177 0.000636484 -0.000360091
4.16986e-07 -1.74415e-07 9.8444e-08
-0.000115289 0.000908165 7.82376e-05
-6.06367e-07 -4.69448e-07 3.85045e-07
-3.0561e-07 -6.31605e-08 3.64011e-08
-4.9028e-07 -1.68643e-06 1.33312e-06
-1.41699e-06 -2.99928e-06 2.48674e-06
1.21629e-06 -2.33715e-07 2.11234e-07
3.22345e-07 -3.31364e-07 2.53431e-07
8.36847e-08 -1.34784e-07 1.00215e-07
-1.0594e-06 -5.42554e-06 3.73517e-06
0.000670146 0.000559852 0.000625793
4.43401e-07 -7.15032e-08 5.1257e-08
-9.46771e-05 -3.85858e-05 -0.000291454
4.57321e-07 -2.48998e-06 1.71771e-06
-1.13127e-06 -3.05416e-07 3.28255e-07
-2.144e-06 -4.90092e-06 2.90422e-06
-3.14131e-06 -1.45942e-05 8.73962e-06
-1.08978e-06 -6.74237e-06 4.27244e-06
-2.64853e-06 -1.91667e-06 7.11655e-07
6.24999e-07 -4.38106e-08 3.09404e-08
-1.38947e-06 -4.7372e-07 1.46791e-07
-3.57119e-06 -3.21753e-06 2.48125e-06
2.09577e-06 -3.84561e-06 2.57947e-06
-3.75629e-06 -4.63496e-06 2.55452e-06
3.31239e-07 -2.81795e-07 2.23749e-07
-1.12054e-06 -3.02087e-07 2.16399e-07
-1.11705e-06 -5.3956e-07 1.61487e-07
-1.25338e-06 -1.38643e-06 1.20377e-06
-3.3362e-07 -5.97409e-07 3.39019e-07
0.00123959 0.000491306 0.000333773
-4.54657e-07 -1.5572e-06 9.63364e-07
1.05471e-07 -2.89644e-08 2.50934e-08
-5.11995e-08 -1.89699e-06 1.50535e-06
1.809e-06 -2.08373e-06 1.52731e-06
1.23592e-06 -1.10245e-06 7.75816e-07
-5.80839e-08 -9.66568e-07 7.38704e-07
2.83488e-06 -5.04741e-06 3.39003e-06
9.7223e-07 -3.80028e-07 3.23503e-07
2.53474e-05 -0.00101096 0.000322824
3.54395e-07 9.92685e-10 1.17839e-08
9.32848e-05 -0.00061021 0.000370203
-0.000559355 -0.000293512 7.92949e-05
-0.000243329 0.000197057 -0.000161196
7.0557e-07 -1.95829e-07 1.93828e-07
-2.95932e-07 -4.6438e-08 4.98495e-08
4.08542e-07 -1.64909e-06 1.19782e-06
-7.04843e-07 -7.79573e-07 9.59873e-07
-2.46294e-06 -1.69037e-06 1.14416e-06
-1.54084e-05 -1.40509e-05 8.37634e-06
-2.35811e-06 -2.79581e-06 1.44675e-06
-2.96667e-06 -4.15342e-06 2.18851e-06
-3.56676e-07 -2.58921e-06 1.62703e-06
-8.27834e-05 5.2401e-05 -2.98359e-05
2.88884e-06 -3.93548e-06 2.51172e-06
-3.628e-07 -2.50954e-06 1.49899e-06
7.11502e-07 -3.50611e-06 2.4879e-06
4.16512e-07 -1.73759e-07 7.66342e-08
4.60933e-06 -4.71346e-06 2.96499e-06
8.2994e-09 -2.13649e-07 1.11528e-07
-1.95048e-06 -2.57379e-06 1.48213e-06
6.06741e-06 -4.22571e-06 2.71885e-06
-4.90179e-06 -4.81794e-06 2.63347e-06
-5.73853e-06 -4.67982e-06 2.41135e-06
-2.61036e-07 -1.33359e-08 2.1584e-08
3.42814e-06 -2.04834e-06 1.64916e-06
6.09447e-06 -2.95602e-06 2.25893e-06
4.05297e-06 -2.84154e-06 2.4892e-06
-0.000605267 -0.000346568 -0.000672177
-8.00565e-07 -2.86484e-06 1.70944e-06
-4.67463e-07 -1.74869e-07 1.4554e-07
2.08899e-06 -2.2413e-06 1.51883e-06
2.82147e-06 -6.34688e-06 4.2727e-06
4.92274e-06 -2.09631e-06 1.4084e-06
-2.72642e-06 -1.90559e-06 9.25368e-07
-3.54343e-06 -5.83191e-06 3.44917e-06
-2.59613e-06 -5.51611e-06 3.54441e-06
-6.77504e-07 -1.22326e-07 3.85734e-08
0.000209399 0.000190272 7.44238e-05
-3.0485e-07 -5.58645e-08 1.37603e-09
6.04694e-07 -2.12699e-06 1.43906e-06
4.21015e-06 -1.65525e-06 1.35991e-06
-0.000113603 -0.000695906 -0.000331181
-6.34615e-08 -2.22604e-08 2.29929e-08
3.52882e-06 -1.69107e-06 8.76964e-07
1.13519e-06 -1.55911e-06 1.01917e-06
1.10203e-06 -2.81507e-06 1.93668e-06
-3.15518e-06 -1.60701e-06 1.01141e-06
-2.21588e-06 -1.95356e-06 1.48247e-06
0.000397498 -0.00108378 -0.000117816
1.53734e-07 -1.54731e-08 1.36833e-08
8.7741e-05 -1.73986e-05 -0.000257794
-1.31924e-06 -2.19783e-06 1.22903e-06
1.47965e-06 -2.20457e-06 1.50902e-06
4.35012e-06 -5.51762e-06 3.81884e-06
-2.14289e-06 -3.98965e-06 2.92081e-06
-2.56519e-06 -1.72589e-06 1.05202e-06
-2.1823e-06 -1.81969e-06 9.70798e-07
-2.56822e-06 -3.27508e-06 1.94275e-06
-0.000972333 0.000241844 0.000125414
-5.29356e-06 -2.7739e-06 1.41635e-06
-1.21147e-06 -8.28656e-07 3.15668e-07
4.01952e-06 -9.36784e-06 6.2682e-06
7.31071e-07 -3.86093e-06 2.49906e-06
5.8979e-07 -3.50624e-07 1.68895e-07
1.53077e-06 -3.75327e-07 1.58321e-07
-1.78368e-07 -3.47842e-08 1.46754e-08
-0.000177931 -0.000645781 -8.62504e-05
-3.36538e-08 -1.63016e-06 1.09601e-06
2.73209e-06 -1.59499e-06 9.56149e-07
1.70678e-07 -1.49886e-06 1.11257e-06
0.000502411 -0.000754135 0.000248911
-0.00141115 9.69062e-05 0.000456351
-7.60036e-07 -9.82863e-07 8.2259e-07
-2.05071e-06 -4.05324e-06 2.56067e-06
-1.01573e-06 -5.00214e-07 1.71004e-07
4.05901e-07 -2.08741e-07 1.28638e-07
-1.77699e-07 -1.80412e-06 1.10362e-06
-3.41877e-07 -5.09663e-07 4.62459e-07
1.93125e-07 -2.54594e-06 1.7649e-06
-2.2338e-07 -1.68385e-06 1.23718e-06
6.36151e-07 -2.12406e-06 1.48715e-06
1.01017e-06 -2.16496e-07 3.21922e-07
3.13919e-06 -1.68168e-06 1.28529e-06
2.2368e-06 -1.22432e-06 8.1442e-07
1.55848e-06 -7.28567e-07 6.63342e-07
2.80644e-06 -3.10026e-06 2.21041e-06
-9.53255e-07 -1.73886e-06 9.82199e-07
-7.41345e-07 -2.23228e-07 3.14567e-07
-9.74689e-07 -5.14111e-07 6.27261e-07
-5.64084e-07 -2.33105e-07 2.56838e-07
9.20156e-07 -1.42244e-06 9.8066e-07
-9.70795e-07 -3.09488e-07 9.84497e-08
1.16868e-06 -3.28087e-06 2.17486e-06
0.000229265 -0.000727713 -0.000591969
-2.07953e-06 -3.95083e-06 2.63649e-06
1.52394e-06 -3.02855e-06 2.09359e-06
1.17836e-07 -4.19114e-06 2.60663e-06
0.000248915 -0.000753907 0.000347736
-5.69322e-08 -1.36936e-07 1.13776e-07
-2.59917e-06 -1.73024e-06 9.04154e-07
-3.6377e-06 -3.1252e-06 2.03107e-06
-1.72088e-06 -2.06694e-06 1.42817e-06
1.8511e-06 -1.33041e-06 6.90297e-07
2.05141e-06 -1.89121e-06 1.14736e-06
1.85076e-06 -1.03861e-06 5.33374e-07
1.56247e-06 -1.55767e-06 9.28172e-07
-3.51674e-07 -1.28248e-07 2.5363e-07
8.91646e-07 -4.825e-07 5.29941e-07
-6.53729e-07 -3.08538e-07 8.43128e-08
-9.18448e-07 -3.85818e-07 1.16538e-07
8.32388e-07 -2.58124e-06 1.6933e-06
2.89184e-06 -9.40648e-07 7.81147e-07
3.78634e-08 -2.55993e-06 1.67339e-06
1.54573e-06 -1.15233e-06 9.68109e-07
3.3678e-06 -2.31676e-06 1.47961e-06
0.000261622 -0.000350221 0.000227257
3.69585e-07 -4.14503e-08 1.27402e-08
2.50709e-06 0.000421515 8.65188e-05
1.58789e-06 -4.73431e-07 4.00326e-07
2.47561e-06 -8.35693e-07 5.08461e-07
1.29198e-06 -1.68579e-06 1.41485e-06
1.04904e-06 -1.40214e-06 1.05002e-06
-1.89317e-06 -1.57377e-06 6.79732e-07
-1.88552e-06 -1.25076e-06 5.10227e-07
2.75843e-07 -2.51497e-08 -9.89507e-10
3.11006e-07 -2.03989e-06 1.32408e-06
-7.69346e-07 -2.55918e-06 1.69558e-06
2.63912e-06 -1.95939e-06 1.14946e-06
-1.73356e-06 -9.89752e-07 7.85314e-07
-5.68223e-07 -3.12827e-07 1.31792e-07
-1.94994e-06 -2.57974e-06 1.62019e-06
3.88577e-08 -2.91237e-07 2.24459e-07
8.38375e-07 -9.24229e-07 7.87581e-07
2.7699e-06 -2.78885e-06 2.09833e-06
1.03183e-06 -8.63337e-07 5.29848e-07
-5.7843e-07 -3.25677e-06 2.13721e-06
1.80013e-06 -8.11499e-07 4.4566e-07
-2.68322e-06 -2.3975e-06 1.20866e-06
9.82279e-07 -2.7467e-07 9.37517e-08
-0.000697277 -0.000143503 0.000185664
-3.30824e-07 -4.54314e-07 4.6007e-07
-1.87386e-06 -1.04131e-06 4.47851e-07
5.1879e-07 -8.1779e-07 5.28922e-07
1.28541e-06 -6.02496e-07 2.53131e-07
-1.32929e-06 -7.61896e-07 2.44717e-07
-2.60664e-07 -7.1913e-07 5.375e-07
0.00067711 -0.00077965 -2.31504e-06
-0.000161356 -4.91592e-05 0.000203802
1.19702e-06 -5.16163e-07 6.04709e-07
1.92725e-06 -1.62886e-06 1.17643e-06
-7.8038e-07 -7.62635e-07 3.72876e-07
4.11196e-07 -2.46347e-06 1.64763e-06
7.93451e-07 -7.28332e-07 4.80933e-07
-1.24497e-06 -9.09997e-07 8.64368e-07
1.62369e-06 -2.88733e-06 1.94574e-06
0.000300489 -4.00503e-06 0.000220606
2.68727e-06 -1.98675e-06 1.48157e-06
-1.26529e-07 -2.05202e-07 1.14484e-07
0.000539503 -0.000463843 -4.57935e-06
1.47893e-07 -3.34261e-07 2.56437e-07
0.000884693 -0.000298205 -0.000189425
2.43187e-06 -2.65977e-06 1.85238e-06
1.44009e-06 -1.59077e-06 1.13814e-06
0.000105309 -0.000317002 4.25088e-06
3.36107e-07 -8.27977e-07 6.15753e-07
-0.00027358 -0.000302563 -0.000269788
-5.30994e-07 -9.57465e-07 5.42543e-07
5.91654e-07 -8.45278e-07 5.42724e-07
1.59245e-06 -4.56366e-07 5.14938e-07
-9.53252e-07 -2.95142e-06 1.86334e-06
-2.01442e-07 -4.05882e-07 2.32419e-07
-0.000650497 -0.000699035 -7.70774e-05
-8.87313e-07 -9.24702e-07 5.20817e-07
-7.50887e-07 -3.30411e-07 1.7215e-07
-8.30284e-07 -9.45197e-07 5.27986e-07
-0.000541995 -0.000495968 -2.42335e-05
2.85545e-06 -1.80558e-06 1.20665e-06
2.60563e-06 -2.29276e-06 1.56267e-06
-7.03293e-07 -9.7651e-07 5.50828e-07
5.06761e-07 -8.62418e-07 6.00824e-07
-8.7767e-09 -5.9828e-08 1.07139e-08
0.000175126 0.000605878 -0.000224737
-8.51292e-05 8.86645e-05 5.4653e-05
7.91337e-05 -0.000237253 1.23847e-05
2.68662e-06 -1.73455e-06 1.2482e-06
7.9912e-07 -7.44087e-07 4.74524e-07
1.38213e-06 -5.49273e-07 2.23587e-07
-2.14538e-07 -8.73358e-07 6.323e-07
-1.95958e-05 -0.000150956 5.43972e-05
5.26019e-05 0.000520269 0.000145872
-2.34607e-07 -5.71622e-08 1.86863e-09
-2.84191e-07 -4.401e-08 2.56884e-08
9.59684e-07 -1.79357e-06 1.22843e-06
-1.61406e-08 -3.89347e-08 2.11861e-08