# vtk DataFile Version 4.2
vtk output
ASCII
DATASET UNSTRUCTURED_GRID

POINTS 343 double
0.00112266 0.00419491 9.43064e-08
0.00217134 0.00498248 0.00217539
0 0.00419538 0.00112517
0.00193018 0.00195441 0.00194219
0.00516929 0.00240646 0.00503253
0.00517194 0.00382969 0.00639785
0.00762281 0.00477464 0.00499964
0.00622505 0.00484989 0.00369225
0.00683576 0.00328793 0.00691453
0.00499121 0.00499222 0.00500009
0.00417949 0.0011178 0.00999939
0.00528026 0.00207981 0.00790443
0.00418948 -7.79009e-06 0.00831741
0.00201224 0.00200244 0.00803329
0.0042854 0.00253259 0.00999945
0.00695658 0.00644614 0.00694748
0.00641408 0.00618188 0.00518353
0.00226057 0.00218458 0.00514616
0 0.00143586 0.00417514
0.00159465 0.00346613 0.00403705
0.00683749 0.00319325 0.00316208
0.00774518 0.00221211 0.00506466
0 0.00270918 0.00154168
0.0041587 0.00142819 4.90432e-07
0.00500807 0.0021874 0.00219839
0.00396293 0.00352649 0.0016034
0.00134533 -6.16087e-07 0.00406004
0.00418341 -8.11279e-06 0.00168858
0.00262688 0.00695158 2.62773e-07
0.0019386 0.00805272 0.00194495
0.00408834 0.0062479 0.0016454
0.00800304 0.00798501 0.00799796
0.00796437 0.00481466 0.00802298
0.00838855 0.00607855 0.00594869
0.0100003 0.00882397 0.00419291
0.00757765 0.0076348 0.0049643
0.00856834 0.00997881 0.00416726
0.00797803 0.00797014 0.00201671
0.00353585 0.00303638 0.00695965
0.00443699 0.00366165 0.00832427
0.00389208 0.00160027 0.00596917
0.00500563 0.00766791 0.00767697
0.0019897 0.00800784 0.00798967
0.00282782 0.00999717 0.00712723
0.00391702 0.00839928 0.00595796
0 0.00695361 0.00262895
0.00164664 0.00623923 0.00408792
0 0.0040177 0.00850214
0.00231504 0.00498567 0.00766155
0.00143323 0.00417446 0.00999996
0.00717454 0.00711727 0.00999841
0.00611793 0.00597018 0.00841776
0.00205209 0.0079414 0.00474188
0.00304389 0.00694281 0.00646779
0.001587 0.00607833 0.00592604
0.00998882 0.00578215 0.00831556
0 0.00718191 0.00711644
0.00158485 0.00577342 7.74612e-08
0 0.00577432 0.00158701
0.00999414 0.00715588 0.007115
0.00286706 0.00334919 0.00999982
0.00997003 0.00140734 0.00417503
0.00803667 0.00194178 0.0019797
0.00838955 0.00350094 0.00399894
0.0037257 0.00164778 0.00412847
0.00150954 0.00999967 0.00581503
0.00280926 -3.75006e-06 0.00712779
0.00610928 0.00417087 0.00837624
0.00999382 0.00724793 0.00419522
0.00852815 -2.34205e-05 0.00416813
0.00334218 0.00286952 3.30964e-07
0.00269977 0.00153871 0.00999983
0.00281829 -4.1245e-06 0.00283213
0.00479773 0.00519377 0.00755445
0.00315832 0.00314616 0.00316747
0 0.00849157 0.00581511
0.00486498 0.00366918 0.00378645
0.00153722 0.00270864 6.04254e-08
0.00579959 0.00831539 0.00999871
0.00598522 0.00998869 0.00850527
0.00421437 0.00999378 0.0083175
0.00401777 0.00849804 0.00999914
0.00999916 0.0084653 0.00581396
0.00314781 0.00683345 0.00315098
0 0.00748929 0.00137438
0.00137366 0.00748899 3.05905e-08
0 0.00287343 0.00335182
0 0.00580816 0.00831736
0 0.00429792 0.00253898
0.00253401 0.00429584 2.67272e-07
0.00143384 0.00581916 0.00999997
0.00517557 0.00646822 0.0064003
0.00360329 0.00650924 0.00823395
0.00693146 0.0026122 0.00999868
0.0079987 0.00193866 0.00803464
0.00694183 -1.74045e-05 0.00308237
0.00600076 0.00165181 0.0036131
0.00997563 0.00284583 0.00335193
0 0.00140616 0.00256446
0.00637378 0.00821607 0.00642063
0.00579712 0.00142267 9.00902e-07
0.0060226 0.00354041 0.00160371
0.00315759 0.00999632 0.00582521
0.00856334 0.00997899 0.00583236
0.00255427 0.00140288 2.92544e-07
0.00595013 -1.38299e-05 0.00149506
0.00628125 0.00827611 0.00361731
0.00852326 -2.32394e-05 0.00583292
0.00618623 0.0016599 0.00636505
0.00140223 0.00256405 0.01
0.00711259 0.00716702 5.14919e-07
0.00516608 0.00768189 0.00216914
0.00593723 0.00608334 0.00160227
0 0.00686719 0.00578184
0.00996953 0.00137743 0.00256488
0.00177227 0.00360986 0.00640788
0.0099985 0.00846031 0.00262355
0.00840401 0.00616949 0.00413261
0.00598439 0.00998801 0.00149404
0.0069412 -1.71339e-05 0.00692603
0.00997043 0.00140715 0.00581895
0.00837922 0.00355289 0.00606033
0.00150181 -7.91429e-07 0.00581521
0 0.0013659 0.00748679
0.00136363 -6.72661e-07 0.00752891
0.00999251 0.00684109 0.00578078
0.00581662 0.00848069 4.22089e-07
0 0.0075208 0.00859127
0.00136513 0.00748642 0.00999991
0.00423162 0.00820005 0.00362833
0.00859656 0.00997885 0.00751082
0.0100002 0.0086041 0.00752469
0.00575427 0.00157504 0.00999894
0.00724488 0.00417275 0.00999855
0 0.0057735 0.00666667
0.00137044 0.00999961 0.00752893
0 0.00863025 0.00752641
0.00855443 -2.38587e-05 0.00250799
0.00999217 0.0069272 0.00262889
0.00845141 0.00632197 0.00216311
0.00849975 0.005804 0.00999817
0.00746466 0.00135598 0.00999844
0.00855637 -2.34799e-05 0.00751094
0.00997051 0.00133761 0.00748539
0 0.00143551 0.00581971
0.00595138 -1.33876e-05 0.00850514
0.00419309 -8.17288e-06 0.00340019
0.00792081 0.00468934 0.00203483
0.00998123 0.00427099 0.00253916
0.00423211 0.00999354 0.00666627
0.00283717 0.00999721 0.00283199
0.00130702 -6.68874e-07 0.00241834
0 0.00727418 0.00419576
0.0099882 0.00574742 0.00666536
0.0069788 0.00998464 0.00308149
0.00750849 0.0086206 0.00999832
0 0.00574334 0.00336387
0 0.0043297 0.00416652
0.00686165 0.00577086 0.00999867
0.00997704 0.00299499 0.00691404
0.00420563 -7.98293e-06 0.00666659
0.00248064 0.00999759 0.00861142
0.00746 0.0013469 9.93378e-07
0.00577017 0.00665718 0.00999877
0.00999594 0.00749486 0.00858927
0.00860539 0.00753339 0.00999808
0.00689568 0.0030067 9.85478e-07
0.00335953 0.00574035 4.43908e-07
0.0075275 0.00861328 3.87399e-07
0.00752081 0.00998232 0.00138745
0.00577803 0.00685715 4.95625e-07
0.00696882 0.00635684 0.00303348
0.00748261 -1.98569e-05 0.00138852
0.00288019 0.00499705 0.00999973
0.00432516 0.00582845 0.00999924
0.00432097 0.00416129 0.00999932
0.00752214 0.00998291 0.00861465
0.00246462 -3.18019e-06 0.0086116
0.00998725 0.00571695 0.00336374
0 0.00302218 0.00691532
0.00998145 0.00399119 0.00850035
0.00848368 0.00399643 8.84256e-07
0.00997461 0.00268122 0.00154229
0 0.00244495 0.00857025
0.00244595 0.0085681 0.00999959
0.00748412 -1.93784e-05 0.00861448
0.00846509 0.00260264 0.00999818
0.00883484 0.00417207 0.00999808
0.0056761 0.00998934 0.00583287
0.00518534 0.00757552 0.00503219
0.00564821 0.00998929 0.004215
0.00697806 0.00998498 0.00692569
0.00302054 0.00691327 0.00999951
0.00415781 0.00432446 6.48171e-07
0.00282126 -4.27293e-06 0.00440483
0.0031374 -4.7753e-06 0.00582561
0.00998055 0.00416817 0.00112575
0.00363862 0.00833304 0.00158848
0.00998172 0.00430293 0.00416625
0.00665785 0.00576032 7.70579e-07
0.0085948 0.00997846 0.00250691
0 0.00848692 0.00262374
0.00135227 0.00999964 0.00405989
0 0.00885053 0.00419359
0.0041959 0.0088441 3.92039e-07
0.00420959 0.00999333 0.00168788
0.0049903 0.00478418 0.00237918
0.00720512 0.00450588 8.92599e-07
0.00561598 -1.27012e-05 0.0042158
0.00564394 -1.26417e-05 0.00583329
0.00131381 0.00999965 0.00241807
0.00854538 0.00242255 9.89673e-07
0.00998321 0.00449532 0.00721814
0.00712113 0.00998433 0.0049997
0.00572934 0.00335375 0.00999898
0.00244566 -3.32494e-06 0.00135682
0.00997507 0.00241738 0.00856853
0.00239184 0.00478974 0.00499997
0.00582059 0.00431946 8.82328e-07
0.00830645 0.00578829 6.56853e-07
0.00548511 0.00999013 0.00721987
0.00998207 0.00430352 0.00583243
0.00540829 0.00998992 0.00277554
0.0070838 -1.77303e-05 0.0050004
0.00283958 0.00999722 0.00440439
0 0.00452174 0.00721958
0.00451991 0.00721431 0.00999911
0.00545353 -1.18225e-05 0.00721982
0.00359819 0.00507036 0.00359663
0.00425694 0.00999347 0.00500801
0.00422974 -8.15919e-06 0.00500864
0.00366626 0.00521334 0.00617456
0 0.005744 0.00499998
0 0.00433013 0.00583333
0.0049934 0.00573691 7.22076e-07
0.00498073 0.0063321 0.0035539
0.00537661 -1.1996e-05 0.00277647
0.00998765 0.0057178 0.00499927
0.00368807 0.00640428 0.00484391
0.00573536 0.00499087 0.00999892
0.00998706 0.00574771 0.00158735
0 0.00666667 0
0.00858697 0.00749999 3.94022e-07
0.00331651 -6.33622e-06 1.03828e-06
0 0.01 0.00666667
0.00500636 0.00999125 0.00999919
0 0.00288419 0.00499914
0.00999416 0.00746276 0.00137463
0.00999056 0.00664003 4.04555e-07
0 0.005 0.01
0.00498378 0.00287545 7.08441e-07
0 0.005 0
0.00996397 -2.95266e-05 0.00333366
0.0100056 0.00997304 0.0066651
0.004194 0.00726883 4.65147e-07
0.00997597 0.00285682 0.00499864
0.00497616 -1.13216e-05 1.24405e-06
0 0 0.00666667
0.0037904 0.00361254 0.00522635
0.00497771 -1.07822e-05 0.00999877
0.00996475 -2.92501e-05 0.00666558
0 0 0.005
0.00878569 0.0099775 0.00122013
0.00999947 0.00875297 0.00122019
0.00996432 -2.93366e-05 0.00499964
0.00998371 0.00497291 6.35515e-07
0.00121565 0.00121923 5.95707e-09
0 0.00122008 0.00122008
0 0.00333333 0.01
0 0.00666667 0.01
0.00878057 0.00875785 2.14503e-07
0.0100049 0.00997269 0.00333273
0.00422009 0.00999341 0.00339956
0.00999274 0.00664084 0.00999785
0 0.00333333 0
0 0.00122008 0.00877992
0.00121484 -8.55258e-07 0.0087797
0.00121605 0.0012195 0.0100001
0.00878722 0.00997804 0.00877829
0.00122 0.00877944 0.0099999
0 0.00877992 0.00877992
0.0100012 0.00875368 0.0087779
0.00667306 0.00998531 5.60046e-08
0.00996844 0.00119101 0.00122092
0.00122104 0.00999944 0.00878012
0.00878273 0.00875858 0.00999809
0.00998586 0.00497382 0.00999787
0 0 0.00333333
0.00663681 -1.68554e-05 1.43188e-06
0.00874513 -2.48761e-05 0.0012213
0.00120599 -8.80269e-07 0.00121212
0 0.00877992 0.00122008
0.00122015 0.0087794 1.13659e-07
0.00121249 0.00999949 0.00121144
0.00997016 0.00119161 0.00877799
0.00875198 0.00119645 0.00999801
0.00663885 -1.63249e-05 0.00999818
0.00874978 0.00119583 1.10841e-06
0.00874687 -2.43574e-05 0.00877803
0.00997695 0.0033056 8.16034e-07
0.00333805 0.00999535 0.0099998
0.00246226 0.00999777 0.00135641
0.0066746 0.00998597 0.00999884
0.00997903 0.00330652 0.00999786
0 0.01 0.005
0.00262454 0.00848457 2.78039e-07
0.0100052 0.00997287 0.00499898
0 0.01 0.00333333
0 0.00166667 0
0.00996362 -2.97868e-05 0.00166758
0 0.00166667 0.01
0 0.00833333 0
0.00999749 0.0083064 1.69657e-07
0.00996516 -2.93232e-05 0.00833142
0.0100046 0.00997248 0.00166654
0.010006 0.00997307 0.00833144
0.00166897 0.00999846 0.00999996
0 0.01 0.00833333
0.00833929 0.00997906 7.14299e-08
0.00829934 -2.34161e-05 1.33803e-06
0.00830155 -2.28662e-05 0.00999786
0.00834113 0.0099796 0.0099983
0 0 0.00833333
0.00999969 0.00830722 0.0099978
0.00165792 -2.19788e-06 3.15993e-07
0 0 0.00166667
0.00333825 0.00999555 2.28772e-07
0.00997224 0.00163837 0.0099978
0.00997009 0.00163772 9.48756e-07
0.00165879 -1.80903e-06 0.01
0.00166893 0.00999877 1.15588e-07
0 0.01 0.00166667
0.0100065 0.00997307 0.00999789
0 0 0.01
0.0100043 0.00997231 -1.09021e-07
0.00996551 -2.94269e-05 0.0099975
0 0.01 0.01
0.00996329 -3.00146e-05 1.21265e-06
0 0.01 0
0 0 0
0.00500592 0.00999076 1.78404e-07
0.00331768 -5.68953e-06 0.00999926
0 0.00833333 0.01

CELLS 343 686
1 0
1 1
1 2
1 3
1 4
1 5
1 6
1 7
1 8
1 9
1 10
1 11
1 12
1 13
1 14
1 15
1 16
1 17
1 18
1 19
1 20
1 21
1 22
1 23
1 24
1 25
1 26
1 27
1 28
1 29
1 30
1 31
1 32
1 33
1 34
1 35
1 36
1 37
1 38
1 39
1 40
1 41
1 42
1 43
1 44
1 45
1 46
1 47
1 48
1 49
1 50
1 51
1 52
1 53
1 54
1 55
1 56
1 57
1 58
1 59
1 60
1 61
1 62
1 63
1 64
1 65
1 66
1 67
1 68
1 69
1 70
1 71
1 72
1 73
1 74
1 75
1 76
1 77
1 78
1 79
1 80
1 81
1 82
1 83
1 84
1 85
1 86
1 87
1 88
1 89
1 90
1 91
1 92
1 93
1 94
1 95
1 96
1 97
1 98
1 99
1 100
1 101
1 102
1 103
1 104
1 105
1 106
1 107
1 108
1 109
1 110
1 111
1 112
1 113
1 114
1 115
1 116
1 117
1 118
1 119
1 120
1 121
1 122
1 123
1 124
1 125
1 126
1 127
1 128
1 129
1 130
1 131
1 132
1 133
1 134
1 135
1 136
1 137
1 138
1 139
1 140
1 141
1 142
1 143
1 144
1 145
1 146
1 147
1 148
1 149
1 150
1 151
1 152
1 153
1 154
1 155
1 156
1 157
1 158
1 159
1 160
1 161
1 162
1 163
1 164
1 165
1 166
1 167
1 168
1 169
1 170
1 171
1 172
1 173
1 174
1 175
1 176
1 177
1 178
1 179
1 180
1 181
1 182
1 183
1 184
1 185
1 186
1 187
1 188
1 189
1 190
1 191
1 192
1 193
1 194
1 195
1 196
1 197
1 198
1 199
1 200
1 201
1 202
1 203
1 204
1 205
1 206
1 207
1 208
1 209
1 210
1 211
1 212
1 213
1 214
1 215
1 216
1 217
1 218
1 219
1 220
1 221
1 222
1 223
1 224
1 225
1 226
1 227
1 228
1 229
1 230
1 231
1 232
1 233
1 234
1 235
1 236
1 237
1 238
1 239
1 240
1 241
1 242
1 243
1 244
1 245
1 246
1 247
1 248
1 249
1 250
1 251
1 252
1 253
1 254
1 255
1 256
1 257
1 258
1 259
1 260
1 261
1 262
1 263
1 264
1 265
1 266
1 267
1 268
1 269
1 270
1 271
1 272
1 273
1 274
1 275
1 276
1 277
1 278
1 279
1 280
1 281
1 282
1 283
1 284
1 285
1 286
1 287
1 288
1 289
1 290
1 291
1 292
1 293
1 294
1 295
1 296
1 297
1 298
1 299
1 300
1 301
1 302
1 303
1 304
1 305
1 306
1 307
1 308
1 309
1 310
1 311
1 312
1 313
1 314
1 315
1 316
1 317
1 318
1 319
1 320
1 321
1 322
1 323
1 324
1 325
1 326
1 327
1 328
1 329
1 330
1 331
1 332
1 333
1 334
1 335
1 336
1 337
1 338
1 339
1 340
1 341
1 342

CELL_TYPES 343
1
1
1
1
1
1
1
1
1
1
1
1
1
1
1
1
1
1
1
1
1
1
1
1
1
1
1
1
1
1
1
1
1
1
1
1
1
1
1
1
1
1
1
1
1
1
1
1
1
1
1
1
1
1
1
1
1
1
1
1
1
1
1
1
1
1
1
1
1
1
1
1
1
1
1
1
1
1
1
1
1
1
1
1
1
1
1
1
1
1
1
1
1
1
1
1
1
1
1
1
1
1
1
1
1
1
1
1
1
1
1
1
1
1
1
1
1
1
1
1
1
1
1
1
1
1
1
1
1
1
1
1
1
1
1
1
1
1
1
1
1
1
1
1
1
1
1
1
1
1
1
1
1
1
1
1
1
1
1
1
1
1
1
1
1
1
1
1
1
1
1
1
1
1
1
1
1
1
1
1
1
1
1
1
1
1
1
1
1
1
1
1
1
1
1
1
1
1
1
1
1
1
1
1
1
1
1
1
1
1
1
1
1
1
1
1
1
1
1
1
1
1
1
1
1
1
1
1
1
1
1
1
1
1
1
1
1
1
1
1
1
1
1
1
1
1
1
1
1
1
1
1
1
1
1
1
1
1
1
1
1
1
1
1
1
1
1
1
1
1
1
1
1
1
1
1
1
1
1
1
1
1
1
1
1
1
1
1
1
1
1
1
1
1
1
1
1
1
1
1
1
1
1
1
1
1
1
1
1
1
1
1
1
1
1
1
1
1
1
1
1
1
1
1
1
1
1
1
1
1
1
1
1
1
1
1
1
1
1
1
1
1
1

POINT_DATA 343
FIELD FieldData 8

NodeID_(#) 1 343 int
0
1
2
3
4
5
6
7
8
9
10
11
12
13
14
15
16
17
18
19
20
21
22
23
24
25
26
27
28
29
30
31
32
33
34
35
36
37
38
39
40
41
42
43
44
45
46
47
48
49
50
51
52
53
54
55
56
57
58
59
60
61
62
63
64
65
66
67
68
69
70
71
72
73
74
75
76
77
78
79
80
81
82
83
84
85
86
87
88
89
90
91
92
93
94
95
96
97
98
99
100
101
102
103
104
105
106
107
108
109
110
111
112
113
114
115
116
117
118
119
120
121
122
123
124
125
126
127
128
129
130
131
132
133
134
135
136
137
138
139
140
141
142
143
144
145
146
147
148
149
150
151
152
153
154
155
156
157
158
159
160
161
162
163
164
165
166
167
168
169
170
171
172
173
174
175
176
177
178
179
180
181
182
183
184
185
186
187
188
189
190
191
192
193
194
195
196
197
198
199
200
201
202
203
204
205
206
207
208
209
210
211
212
213
214
215
216
217
218
219
220
221
222
223
224
225
226
227
228
229
230
231
232
233
234
235
236
237
238
239
240
241
242
243
244
245
246
247
248
249
250
251
252
253
254
255
256
257
258
259
260
261
262
263
264
265
266
267
268
269
270
271
272
273
274
275
276
277
278
279
280
281
282
283
284
285
286
287
288
289
290
291
292
293
294
295
296
297
298
299
300
301
302
303
304
305
306
307
308
309
310
311
312
313
314
315
316
317
318
319
320
321
322
323
324
325
326
327
328
329
330
331
332
333
334
335
336
337
338
339
340
341
342

Component_(#) 1 343 int
0
0
0
0
0
0
0
0
0
0
0
0
0
0
0
0
0
0
0
0
0
0
0
0
0
0
0
0
0
0
0
0
0
0
0
0
0
0
0
0
0
0
0
0
0
0
0
0
0
0
0
0
0
0
0
0
0
0
0
0
0
0
0
0
0
0
0
0
0
0
0
0
0
0
0
0
0
0
0
0
0
0
0
0
0
0
0
0
0
0
0
0
0
0
0
0
0
0
0
0
0
0
0
0
0
0
0
0
0
0
0
0
0
0
0
0
0
0
0
0
0
0
0
0
0
0
0
0
0
0
0
0
0
0
0
0
0
0
0
0
0
0
0
0
0
0
0
0
0
0
0
0
0
0
0
0
0
0
0
0
0
0
0
0
0
0
0
0
0
0
0
0
0
0
0
0
0
0
0
0
0
0
0
0
0
0
0
0
0
0
0
0
0
0
0
0
0
0
0
0
0
0
0
0
0
0
0
0
0
0
0
0
0
0
0
0
0
0
0
0
0
0
0
0
0
0
0
0
0
0
0
0
0
0
0
0
0
0
0
0
0
0
0
0
0
0
0
0
0
0
0
0
0
0
0
0
0
0
0
0
0
0
0
0
0
0
0
0
0
0
0
0
0
0
0
0
0
0
0
0
0
0
0
0
0
0
0
0
0
0
0
0
0
0
0
0
0
0
0
0
0
0
0
0
0
0
0
0
0
0
0
0
0
0
0
0
0
0
0
0
0
0
0
0
0
0
0
0
0
0
0
0
0
0
0
0
0
0
0
0
0
0
0

NodalMass_(kg) 1 343 double
3.15563e-06
1.41304e-05
2.20912e-06
1.71484e-05
8.42e-06
9.09306e-06
9.93033e-06
7.52198e-06
6.81096e-06
5.58223e-06
3.10888e-06
1.07575e-05
4.87011e-06
1.64955e-05
3.0246e-06
8.05984e-06
6.703e-06
1.0877e-05
4.18978e-06
8.16106e-06
6.14143e-06
1.17902e-05
2.23114e-06
4.25176e-06
1.09915e-05
7.41467e-06
4.21871e-06
3.92484e-06
3.08766e-06
1.31268e-05
7.72627e-06
1.65404e-05
1.19037e-05
7.29666e-06
3.81683e-06
1.11001e-05
3.81317e-06
1.39137e-05
6.37414e-06
8.00975e-06
7.6712e-06
1.18847e-05
1.6399e-05
2.78633e-06
8.93599e-06
2.58087e-06
7.57362e-06
4.23241e-06
1.31286e-05
3.80168e-06
2.7746e-06
7.16776e-06
1.21307e-05
5.11765e-06
8.19728e-06
4.58094e-06
2.79503e-06
3.26126e-06
4.12443e-06
2.11915e-06
3.35177e-06
3.61669e-06
1.56838e-05
7.33679e-06
8.24695e-06
5.00369e-06
2.82625e-06
7.20276e-06
3.26815e-06
4.18751e-06
2.02785e-06
2.42152e-06
3.11835e-06
5.97459e-06
5.87101e-06
4.09374e-06
5.45463e-06
2.28825e-06
4.49759e-06
4.38192e-06
4.50892e-06
4.39234e-06
4.27273e-06
5.32031e-06
1.53201e-06
2.38869e-06
2.02885e-06
4.38798e-06
3.17972e-06
3.14298e-06
4.61567e-06
5.87645e-06
8.18088e-06
2.48341e-06
1.53815e-05
3.49683e-06
7.35227e-06
2.01314e-06
2.0408e-06
7.98183e-06
4.41293e-06
7.1389e-06
1.20123e-06
5.03343e-06
1.61257e-06
4.12601e-06
8.73748e-06
4.37849e-06
7.97173e-06
2.13557e-06
3.38137e-06
9.48623e-06
7.40262e-06
1.80226e-06
2.10222e-06
7.98889e-06
1.87983e-06
7.44814e-06
4.19782e-06
2.37156e-06
4.31705e-06
6.06441e-06
4.30905e-06
2.16843e-06
1.8986e-06
1.81294e-06
3.89762e-06
2.44299e-06
1.65628e-06
8.01374e-06
1.64513e-06
2.3931e-06
3.01363e-06
2.99431e-06
1.36541e-06
1.87293e-06
2.09622e-06
1.94762e-06
1.87618e-06
6.37913e-06
4.58628e-06
2.02767e-06
1.61999e-06
2.41284e-06
3.8865e-06
4.44973e-06
2.29839e-06
1.17349e-05
3.11811e-06
1.354e-06
3.45063e-06
1.81846e-06
2.9382e-06
1.37381e-06
2.41464e-06
2.10451e-06
2.63927e-06
2.14166e-06
1.7943e-06
3.19976e-06
1.36989e-06
2.43489e-06
2.08158e-06
1.3601e-06
2.17203e-06
1.89924e-06
3.16996e-06
2.6119e-06
2.37677e-06
1.60225e-06
1.90684e-06
5.49206e-06
1.87878e-06
3.14313e-06
2.97301e-06
1.18454e-06
1.89263e-06
2.04166e-06
2.73572e-06
2.42405e-06
3.23083e-06
3.19752e-06
3.2142e-06
1.94492e-06
1.61196e-06
1.86876e-06
3.22435e-06
2.1114e-06
2.96917e-06
6.15288e-06
2.3097e-06
2.39729e-06
2.38029e-06
2.64508e-06
1.66557e-06
1.82377e-06
2.06583e-06
5.73271e-06
2.08467e-06
2.18324e-06
2.43522e-06
3.1188e-06
3.17316e-06
2.05447e-06
1.9592e-06
3.05718e-06
6.44327e-06
2.08796e-06
2.72615e-06
2.15709e-06
1.86812e-06
2.0028e-06
2.10999e-06
2.88994e-06
2.3222e-06
2.3979e-06
1.97629e-06
6.4127e-06
2.16225e-06
3.29198e-06
2.10223e-06
2.66566e-06
1.94415e-06
2.91865e-06
2.58116e-06
2.11703e-06
2.09534e-06
1.91719e-06
7.06046e-06
2.25203e-06
2.06378e-06
6.28159e-06
2.12147e-06
2.90924e-06
2.12921e-06
6.4487e-06
1.41701e-06
2.0682e-06
6.58062e-06
2.52584e-06
2.39732e-06
7.42191e-07
2.22368e-06
7.06751e-07
7.00657e-07
8.93749e-07
2.53536e-06
2.26535e-06
1.33607e-06
7.84725e-07
2.32303e-06
6.06694e-07
6.68276e-07
6.84307e-07
2.51242e-06
2.31629e-06
7.8367e-07
6.80839e-07
6.22692e-06
6.7471e-07
6.65305e-07
7.01158e-07
1.8232e-06
1.90695e-06
6.86722e-07
7.04792e-07
1.86445e-06
2.28572e-06
6.8045e-07
7.16005e-07
1.82373e-06
6.01079e-07
2.02791e-06
7.4579e-07
5.74423e-07
1.80052e-06
1.454e-06
2.2702e-06
1.80636e-06
2.15356e-06
1.79089e-06
1.79456e-06
6.8231e-07
2.24737e-06
1.45239e-06
1.79556e-06
6.97875e-07
6.24265e-07
6.62717e-07
1.44627e-06
1.40138e-06
2.15258e-06
1.82851e-06
1.3994e-06
1.43932e-06
2.19226e-06
6.97732e-07
1.77726e-06
1.79162e-06
6.54258e-07
7.3397e-07
2.34895e-06
7.10392e-07
6.56982e-07
6.26314e-07
2.18926e-06
6.12493e-07
6.03901e-07
5.92831e-07
5.12031e-07
5.11667e-07
4.9467e-07
4.97016e-07
4.96269e-07
5.33079e-07
4.94191e-07
4.97855e-07
4.86862e-07
4.90626e-07
4.94649e-07
4.94954e-07
4.91922e-07
4.89615e-07
4.96354e-07
4.95189e-07
4.82188e-07
1.10854e-06
5.3299e-07
5.44763e-07
5.36655e-07
5.15417e-07
5.01772e-07
5.53774e-07
5.53774e-07
5.53774e-07
5.53774e-07
5.53774e-07
5.53774e-07
5.50785e-07
5.50785e-07
7.45291e-07
7.11668e-07
4.9897e-07

NodalForce_(N) 3 343 double
-2.53885e-08 -5.30339e-09 -2.53939e-09
-6.86049e-08 -7.3071e-08 -2.99673e-08
0.00038695 0.000401518 0.000429317
-2.80096e-07 -5.76321e-08 -2.19081e-08
-1.42323e-07 -2.44631e-07 -2.09026e-07
1.76127e-07 -2.62218e-07 -2.74339e-07
9.24495e-08 -5.96629e-07 -7.10061e-07
-1.04764e-07 -3.21875e-07 -3.17325e-07
1.95411e-07 -3.23263e-07 -4.13437e-07
6.36206e-08 -1.54778e-07 -1.31675e-07
1.03279e-07 -5.32528e-08 -1.05371e-07
2.52162e-07 -3.03501e-07 -4.38982e-07
1.48403e-08 -7.25446e-08 -1.4144e-07
-8.62065e-09 -4.48526e-08 -3.5837e-08
1.39703e-07 -5.6789e-08 -1.08001e-07
5.708e-07 -4.02411e-07 -5.2229e-07
2.05379e-07 -2.99028e-07 -3.18952e-07
-1.05524e-07 -5.65526e-08 -3.48714e-08
-0.00129637 0.000704176 -0.000181377
-4.33598e-08 -1.82583e-08 -1.22326e-08
-2.90163e-07 -2.99106e-07 -3.30607e-07
-2.52398e-07 -6.81033e-07 -8.76329e-07
-0.000540301 -0.00165534 -0.000842335
-3.30415e-07 -8.57819e-08 -1.17235e-07
-6.32573e-07 -3.00813e-07 -3.30908e-07
-2.84035e-07 -1.31768e-07 -1.55831e-07
-5.29769e-08 -2.78775e-09 -3.54893e-09
-2.65987e-07 -7.6611e-08 -8.47473e-08
-5.78676e-08 -2.66833e-08 -3.2934e-08
1.04141e-07 -5.17002e-08 -2.69397e-08
-1.12165e-07 -1.50495e-07 -1.73479e-07
1.94557e-06 -1.00543e-06 -1.5315e-06
9.08673e-07 -7.45013e-07 -1.06962e-06
3.36258e-07 -5.1124e-07 -6.73982e-07
1.28661e-07 -3.33761e-07 -4.82144e-07
5.09617e-07 -6.41312e-07 -7.9255e-07
2.10435e-07 -2.4406e-07 -3.62207e-07
-2.1232e-07 -9.00349e-07 -1.15746e-06
3.97284e-08 -9.05946e-08 -8.267e-08
2.85689e-07 -1.68573e-07 -2.53437e-07
-9.63735e-08 -1.23417e-07 -8.74125e-08
9.05145e-07 -3.10277e-07 -4.43594e-07
4.20425e-07 -5.16477e-08 -7.14437e-08
1.36333e-07 -2.08053e-08 -2.6454e-08
4.09953e-07 -1.51948e-07 -1.3597e-07
0.000948616 0.000769106 -0.000382833
3.46673e-08 -2.38479e-08 -1.07798e-08
-0.000220124 0.00102938 1.46193e-05
1.96313e-07 -7.43692e-08 -6.40135e-08
4.70342e-08 -9.6567e-09 -9.96754e-09
3.73556e-07 -1.36906e-07 -2.38731e-07
5.91927e-07 -2.75632e-07 -4.20444e-07
1.87179e-07 -5.45769e-08 -3.31466e-08
1.30148e-07 -4.90924e-08 -4.3647e-08
7.00543e-08 -2.26435e-08 -1.39888e-08
4.10141e-07 -4.04801e-07 -6.23729e-07
0.000800288 0.000587905 0.00068779
-2.68062e-08 -1.16402e-08 -1.03438e-08
-0.000106546 -1.59305e-05 -0.000344284
1.70469e-07 -1.87562e-07 -2.82696e-07
1.2979e-07 -3.00672e-08 -5.65308e-08
-2.10562e-07 -3.02154e-07 -4.47092e-07
-1.47428e-06 -9.75695e-07 -1.25031e-06
-2.28689e-07 -5.01419e-07 -6.43605e-07
-2.11926e-07 -1.30829e-07 -7.09611e-08
1.01822e-07 1.87797e-09 -1.03447e-08
-4.89641e-08 -1.65914e-08 -1.72884e-08
4.3385e-07 -2.76321e-07 -4.16536e-07
4.4817e-08 -2.94492e-07 -4.09622e-07
-2.94748e-07 -2.61526e-07 -3.75215e-07
-1.09434e-07 -2.69415e-08 -3.60333e-08
6.01194e-08 -1.49935e-08 -3.62819e-08
-1.08388e-07 -2.7019e-08 -1.91499e-08
2.67371e-07 -1.47631e-07 -1.94533e-07
-8.79239e-08 -6.24342e-08 -3.59499e-08
0.00143988 0.000577757 0.000328005
-1.04785e-07 -1.43304e-07 -1.1894e-07
-3.98695e-08 -2.84817e-09 -5.76183e-09
5.9306e-07 -1.4674e-07 -2.81974e-07
5.58467e-07 -1.42196e-07 -2.59667e-07
4.00733e-07 -8.12882e-08 -1.35973e-07
4.13084e-07 -7.35386e-08 -1.53259e-07
2.88981e-07 -3.74921e-07 -5.53514e-07
4.70008e-08 -6.33924e-08 -3.47028e-08
4.7574e-05 -0.00109381 0.000393575
-1.21222e-09 -3.36121e-09 -4.03691e-09
0.000103831 -0.000697377 0.000430712
-0.000805444 -0.0003402 6.4996e-05
-0.000292463 0.000270092 -0.000159699
-9.72225e-08 -2.42336e-08 -3.06375e-08
8.78673e-08 -9.37293e-09 -1.30343e-08
2.77877e-07 -1.719e-07 -1.88026e-07
4.06155e-07 -1.03336e-07 -1.74738e-07
1.86465e-07 -1.12598e-07 -1.95825e-07
6.1062e-07 -8.98587e-07 -1.36693e-06
-3.01253e-07 -1.56657e-07 -1.92804e-07
-3.81013e-07 -2.74536e-07 -2.80243e-07
-1.20901e-07 -1.74945e-07 -2.4963e-07
-5.21171e-05 0.000119986 7.80575e-06
6.19645e-07 -3.31196e-07 -4.11876e-07
-4.8491e-07 -1.56353e-07 -2.21698e-07
-4.48851e-07 -2.81935e-07 -3.43513e-07
5.46712e-08 -1.14106e-08 -1.05632e-08
4.74261e-07 -3.12648e-07 -4.85746e-07
-7.91175e-08 -1.40348e-08 -1.75708e-08
-4.20874e-07 -1.42766e-07 -1.91443e-07
2.27611e-07 -3.67061e-07 -3.95552e-07
-1.39971e-07 -2.69098e-07 -4.02717e-07
-7.12879e-09 -3.00465e-07 -3.66079e-07
1.21066e-08 -2.39809e-09 -4.65258e-09
-1.88544e-07 -1.87016e-07 -2.59937e-07
-3.45474e-09 -2.96514e-07 -3.24795e-07
-2.45283e-07 -2.99708e-07 -3.61331e-07
-0.000758204 -0.00035183 -0.000805931
-2.01888e-07 -1.77294e-07 -2.59364e-07
7.20122e-09 -2.31456e-08 -1.47661e-08
-1.36564e-08 -1.67828e-07 -2.41522e-07
4.29991e-08 -5.32133e-07 -6.56908e-07
3.95171e-08 -1.48043e-07 -2.21117e-07
-1.97503e-08 -9.93182e-08 -1.45418e-07
-8.53618e-08 -3.54747e-07 -5.41668e-07
1.02665e-07 -4.12726e-07 -5.53943e-07
-4.09856e-08 -3.60155e-09 -4.26284e-09
0.000225359 0.000169263 0.00013707
-9.47558e-09 -1.58682e-10 -9.17129e-11
8.34747e-08 -1.62867e-07 -2.3381e-07
-1.23359e-07 -1.49564e-07 -2.15887e-07
-0.000102735 -0.000745644 -0.000441789
3.7613e-08 -3.35112e-10 -6.38341e-09
1.99941e-07 -1.68579e-07 -1.19135e-07
2.16929e-07 -1.0226e-07 -1.7063e-07
2.59917e-07 -2.07497e-07 -3.25091e-07
1.67033e-07 -9.83479e-08 -1.75442e-07
2.93404e-07 -1.53213e-07 -2.55639e-07
0.000605825 -0.00113283 -0.00010912
3.96762e-08 -1.17698e-09 -1.39981e-09
5.33713e-05 6.77911e-05 -0.000217789
-2.10827e-07 -1.23794e-07 -1.74512e-07
-4.98479e-08 -1.74124e-07 -2.37223e-07
-2.34836e-07 -4.70654e-07 -5.82477e-07
5.98122e-07 -3.09878e-07 -5.04343e-07
1.31774e-07 -1.02893e-07 -1.80303e-07
7.46853e-09 -9.82984e-08 -1.58846e-07
4.0118e-08 -1.93673e-07 -3.13313e-07
-0.00105577 0.000295667 7.97032e-05
6.83974e-08 -1.35393e-07 -2.41348e-07
-1.17966e-07 -4.32448e-08 -3.34296e-08
-6.72409e-07 -7.52288e-07 -9.27001e-07
-1.91855e-07 -2.78953e-07 -3.87804e-07
9.78956e-08 -2.47283e-08 -2.967e-08
1.00547e-07 -2.11967e-08 -2.27874e-08
-2.57922e-08 -2.37881e-09 1.15709e-09
-0.000291843 -0.000732103 -7.14812e-05
7.27904e-08 -1.23251e-07 -1.78812e-07
8.15467e-08 -1.09826e-07 -1.47304e-07
3.29196e-07 -1.08499e-07 -1.99153e-07
0.00050845 -0.000856671 0.000259758
-0.00145915 0.000128969 0.000516384
2.06096e-07 -8.31853e-08 -1.42865e-07
7.77667e-08 -2.76979e-07 -4.12659e-07
-2.28951e-08 -2.18436e-08 -2.47871e-08
1.32176e-07 -1.65575e-08 -2.51112e-08
-2.73873e-07 -1.13399e-07 -1.66111e-07
1.49972e-07 -4.57975e-08 -8.49945e-08
2.56371e-07 -1.89383e-07 -3.00691e-07
2.92349e-07 -1.26856e-07 -2.16076e-07
-3.34437e-07 -1.58798e-07 -2.20674e-07
-8.75618e-08 -3.48502e-08 -4.79143e-08
-1.02141e-07 -1.38826e-07 -2.04577e-07
-1.71887e-09 -8.56646e-08 -1.28655e-07
-9.27302e-08 -7.45901e-08 -1.04596e-07
-5.72668e-08 -2.91885e-07 -3.21145e-07
-2.28358e-07 -9.65626e-08 -1.36355e-07
1.50464e-07 -2.10899e-08 -5.75093e-08
2.32196e-07 -5.43273e-08 -1.16673e-07
7.33152e-08 -2.17061e-08 -4.62565e-08
2.80842e-07 -9.47507e-08 -1.66749e-07
-6.31678e-09 -8.07385e-09 -1.58841e-08
-6.64995e-08 -2.50145e-07 -3.3943e-07
0.00029875 -0.000710456 -0.000590892
2.31226e-07 -2.81496e-07 -4.37009e-07
-3.64187e-07 -2.28825e-07 -3.22239e-07
-3.35946e-07 -2.81967e-07 -3.99629e-07
0.000297575 -0.000820862 0.000417587
9.54516e-08 -9.64914e-09 -2.53578e-08
4.75843e-08 -8.7846e-08 -1.53607e-07
2.86264e-07 -2.0734e-07 -3.47596e-07
2.31723e-07 -1.51273e-07 -2.44558e-07
2.4114e-07 -8.97396e-08 -1.1197e-07
2.49478e-07 -1.85884e-07 -1.69833e-07
1.23815e-07 -7.05953e-08 -8.02621e-08
2.66896e-07 -1.05515e-07 -1.56188e-07
1.45695e-07 -1.97807e-08 -5.18989e-08
-1.48302e-07 -5.36193e-08 -7.71773e-08
-4.40451e-08 -1.35921e-08 -4.60492e-09
-4.41072e-08 -1.55658e-08 -9.02201e-09
-1.96628e-07 -1.87107e-07 -2.62642e-07
2.46412e-08 -9.66314e-08 -1.07284e-07
-4.77002e-08 -1.86415e-07 -2.59847e-07
-1.53072e-07 -1.1104e-07 -1.4811e-07
4.28978e-08 -1.58498e-07 -2.35741e-07
0.000328223 -0.000439442 0.000197715
4.55886e-08 1.18777e-09 -4.75171e-09
-1.101e-05 0.000479515 0.000154624
-2.91636e-08 -4.30063e-08 -6.22977e-08
5.52497e-08 -5.37998e-08 -7.66634e-08
-1.78529e-07 -1.82024e-07 -1.90958e-07
-1.89719e-07 -1.16594e-07 -1.58434e-07
-1.49144e-07 -8.35984e-08 -8.07196e-08
-5.60877e-08 -6.38222e-08 -7.29514e-08
2.0219e-08 8.13225e-10 -8.26579e-10
-2.68416e-07 -1.3992e-07 -2.02191e-07
1.04561e-07 -1.8651e-07 -2.76491e-07
2.11443e-07 -1.3318e-07 -1.84228e-07
1.69383e-07 -7.50625e-08 -1.36863e-07
-9.68662e-08 -1.98953e-08 -1.19434e-08
1.05733e-07 -1.64792e-07 -2.65432e-07
2.07759e-08 -4.40951e-08 -2.46076e-08
-1.67545e-07 -8.28816e-08 -1.1564e-07
-2.91799e-07 -2.42338e-07 -3.30006e-07
2.07443e-07 -5.93315e-08 -8.70166e-08
4.19703e-08 -2.37347e-07 -3.40344e-07
6.08889e-08 -5.67991e-08 -6.98271e-08
-1.38802e-07 -1.31813e-07 -1.72676e-07
9.15116e-08 -1.62608e-08 -1.34467e-08
-0.000757478 -0.000168231 0.000246268
1.99162e-07 -4.08802e-08 -8.84293e-08
-1.08261e-08 -5.15451e-08 -7.38976e-08
-9.10044e-09 -1.04671e-07 -5.94489e-08
1.23699e-07 -3.93097e-08 -3.75592e-08
-7.42255e-08 -3.60754e-08 -2.30095e-08
1.08249e-07 -9.35259e-08 -7.66292e-08
0.000762972 -0.000814754 3.9682e-06
-0.000263473 -5.78685e-05 0.00020388
-1.12984e-07 -6.47053e-08 -8.98578e-08
3.66366e-08 -1.81357e-07 -1.507e-07
-1.04006e-07 -4.18181e-08 -4.50553e-08
2.98225e-08 -1.88473e-07 -2.61644e-07
1.10345e-07 -1.00354e-07 -6.43735e-08
2.28799e-07 -8.26096e-08 -1.53665e-07
-1.56157e-07 -2.22433e-07 -3.0464e-07
0.00039893 -1.14767e-05 0.000304646
-1.54043e-07 -1.65142e-07 -2.37729e-07
-5.0812e-08 -7.34067e-09 -1.42878e-08
0.000601962 -0.000539488 -5.23689e-06
1.16965e-07 -1.87838e-08 -4.75844e-08
0.00105029 -0.000239154 -0.000228768
-1.11054e-07 -2.11035e-07 -2.92668e-07
-1.19324e-07 -1.2494e-07 -1.82661e-07
7.41503e-05 -0.000344707 5.42937e-05
-1.89074e-07 -6.43374e-08 -9.2196e-08
-0.000253883 -0.000292745 -0.000247416
-6.18246e-08 -5.17288e-08 -8.1734e-08
7.11347e-08 -5.35713e-08 -9.04307e-08
-7.22222e-08 -5.34055e-08 -7.90319e-08
-4.86962e-08 -2.01219e-07 -2.91156e-07
-8.3854e-08 -1.8576e-08 -3.19907e-08
-0.000731505 -0.000768301 -9.97035e-05
-1.01209e-08 -9.79888e-08 -6.40103e-08
2.00333e-08 -1.67287e-08 -3.29829e-08
-1.09682e-08 -5.08897e-08 -8.38502e-08
-0.000623838 -0.000582544 -2.67852e-05
-2.17356e-08 -1.25645e-07 -1.93877e-07
-6.89352e-08 -1.70792e-07 -2.49705e-07
-3.7093e-08 -5.28888e-08 -8.48242e-08
-7.71945e-08 -6.63071e-08 -9.53601e-08
-2.91897e-08 -3.57674e-09 -3.80182e-09
0.000166539 0.000732259 -0.000327144
-0.000145565 0.00012725 0.000118724
9.17998e-06 -0.000247145 8.8076e-05
-9.82244e-08 -1.3689e-07 -2.02944e-07
1.61501e-08 -4.9046e-08 -7.66973e-08
7.7872e-08 -3.54474e-08 -3.32709e-08
1.03451e-07 -6.47775e-08 -1.07922e-07
2.9763e-05 -0.000196358 0.000109507
8.90659e-05 0.000566094 0.00016661