# vtk DataFile Version 4.2
vtk output
ASCII
DATASET UNSTRUCTURED_GRID

POINTS 343 double
0.00112263 0.00419491 8.6148e-08
0.00217131 0.00498249 0.00217538
0 0.00419538 0.00112517
0.00193022 0.00195445 0.00194217
0.00516969 0.00240679 0.0050324
0.00517227 0.00382992 0.0063977
0.00762288 0.00477522 0.00499924
0.00622497 0.00485024 0.00369202
0.00683631 0.00328845 0.00691421
0.00499127 0.0049924 0.00499997
0.0041802 0.00111812 0.0099992
0.00528094 0.00208019 0.00790423
0.00419024 -7.4145e-06 0.00831728
0.00201235 0.00200247 0.00803327
0.00428598 0.00253282 0.00999925
0.00695662 0.00644655 0.00694715
0.00641396 0.00618221 0.00518329
0.00226066 0.00218461 0.00514615
0 0.00143586 0.00417514
0.00159467 0.00346614 0.00403705
0.00683762 0.0031938 0.00316176
0.00774573 0.00221289 0.00506423
0 0.00270918 0.00154168
0.00415875 0.00142851 2.90592e-07
0.00500825 0.00218777 0.00219817
0.00396286 0.00352663 0.00160325
0.00134544 -5.90391e-07 0.00406003
0.00418379 -7.74572e-06 0.0016884
0.00262663 0.00695161 1.81004e-07
0.00193852 0.00805272 0.00194493
0.00408809 0.00624797 0.00164524
0.00800289 0.00798563 0.00799747
0.00796483 0.0048153 0.0080225
0.00838847 0.00607923 0.00594818
0.00999926 0.00882502 0.00419218
0.00757718 0.00763534 0.00496391
0.00856724 0.00997967 0.00416673
0.00797708 0.00797076 0.0020162
0.00353608 0.00303647 0.0069596
0.00443737 0.0036618 0.00832411
0.00389249 0.0016005 0.00596912
0.0050056 0.00766811 0.00767679
0.00198971 0.00800786 0.00798966
0.00282764 0.00999727 0.0071272
0.00391685 0.00839941 0.00595791
0 0.00695361 0.00262895
0.00164662 0.00623924 0.00408791
0 0.0040177 0.00850214
0.00231508 0.00498568 0.00766154
0.00143328 0.00417446 0.00999995
0.00717476 0.00711776 0.00999795
0.00611816 0.00597049 0.00841746
0.00205206 0.0079414 0.00474187
0.00304389 0.00694283 0.00646777
0.001587 0.00607834 0.00592603
0.00998902 0.00578317 0.00831481
0 0.00718191 0.00711644
0.00158477 0.00577343 5.48647e-08
0 0.00577432 0.00158701
0.00999389 0.00715689 0.00711426
0.00286735 0.00334925 0.00999972
0.00997055 0.00140863 0.00417428
0.00803686 0.00194264 0.00197918
0.0083897 0.00350174 0.00399842
0.00372603 0.00164799 0.00412842
0.00150948 0.00999968 0.00581503
0.0028097 -3.56447e-06 0.00712776
0.00610978 0.00417122 0.00837594
0.00999314 0.00724894 0.00419449
0.00852902 -2.23201e-05 0.00416758
0.00334204 0.00286963 2.04181e-07
0.00270016 0.00153883 0.00999974
0.00281866 -3.93359e-06 0.00283209
0.00479797 0.00519392 0.00755429
0.0031584 0.00314622 0.00316744
0 0.00849157 0.00581511
0.00486511 0.00366939 0.00378633
0.00153719 0.00270865 4.51234e-08
0.00579967 0.00831572 0.00999839
0.00598492 0.00998912 0.00850496
0.0042142 0.009994 0.00831735
0.00401785 0.00849821 0.00999896
0.00999847 0.00846633 0.00581324
0.00314774 0.00683347 0.00315095
0 0.00748929 0.00137438
0.00137358 0.00748898 1.97626e-08
0 0.00287343 0.00335182
0 0.00580816 0.00831736
0 0.00429792 0.00253898
0.00253383 0.00429588 1.95184e-07
0.0014339 0.00581916 0.00999996
0.00517558 0.00646841 0.00640015
0.00360341 0.00650928 0.00823385
0.00693243 0.00261281 0.00999825
0.0079997 0.0019395 0.00803417
0.00694249 -1.65978e-05 0.00308201
0.00600117 0.00165234 0.00361286
0.00997574 0.00284701 0.00335117
0 0.00140616 0.00256446
0.00637352 0.00821646 0.00642039
0.00579722 0.00142322 5.36092e-07
0.00602255 0.00354082 0.00160338
0.00315736 0.00999645 0.00582518
0.00856249 0.00997985 0.00583184
0.00255427 0.00140301 2.12526e-07
0.0059506 -1.31927e-05 0.00149472
0.00628068 0.00827649 0.00361706
0.00852436 -2.2147e-05 0.0058324
0.00618694 0.00166044 0.00636482
0.0014023 0.00256405 0.01
0.00711164 0.00716749 -2.49413e-09
0.00516558 0.00768211 0.00216892
0.00593677 0.0060836 0.00160194
0 0.00686719 0.00578184
0.00996983 0.00137873 0.00256411
0.00177231 0.00360987 0.00640788
0.00999734 0.00846135 0.00262278
0.00840366 0.00617018 0.0041321
0.00598337 0.00998846 0.00149372
0.00694233 -1.63248e-05 0.00692571
0.00997119 0.00140844 0.00581822
0.00837965 0.00355368 0.00605982
0.00150194 -7.5726e-07 0.00581521
0 0.0013659 0.00748679
0.00136375 -6.3895e-07 0.00752892
0.00999215 0.0068421 0.00578006
0.00581568 0.00848103 4.31077e-08
0 0.0075208 0.00859127
0.00136518 0.00748642 0.00999989
0.00423133 0.0082002 0.00362826
0.00859593 0.00997972 0.00751027
0.00999973 0.00860513 0.00752394
0.00575527 0.00157555 0.00999862
0.00724562 0.00417329 0.00999809
0 0.0057735 0.00666667
0.0013704 0.00999962 0.00752893
0 0.00863025 0.00752641
0.00855508 -2.27297e-05 0.0025074
0.00999133 0.00692821 0.00262813
0.00845074 0.00632267 0.00216255
0.00850024 0.00580472 0.00999758
0.00746589 0.00135679 0.00999796
0.0085577 -2.23605e-05 0.00751042
0.00997152 0.0013389 0.00748466
0 0.00143551 0.00581971
0.00595252 -1.27554e-05 0.00850487
0.00419362 -7.79416e-06 0.00340009
0.00792048 0.00469 0.00203434
0.00998093 0.00427208 0.0025384
0.0042318 0.00999377 0.00666618
0.00283688 0.00999731 0.00283196
0.00130712 -6.42178e-07 0.00241833
0 0.00727418 0.00419576
0.00998819 0.00574844 0.00666464
0.00697778 0.00998523 0.00308115
0.00750848 0.0086212 0.00999781
0 0.00574334 0.00336387
0 0.0043297 0.00416652
0.00686209 0.00577128 0.00999823
0.00997763 0.00299613 0.00691332
0.00420634 -7.59823e-06 0.00666651
0.00248054 0.00999767 0.00861138
0.00746007 0.00134773 4.35319e-07
0.00577046 0.00665746 0.00999844
0.00999582 0.00749588 0.00858852
0.00860554 0.00753414 0.00999746
0.0068955 0.00300729 4.90596e-07
0.00335923 0.00574038 3.03244e-07
0.00752625 0.00861387 -1.81605e-07
0.00751951 0.00998302 0.00138696
0.00577731 0.00685742 1.17188e-07
0.00696836 0.00635726 0.00303313
0.00748311 -1.8918e-05 0.00138802
0.00288041 0.00499709 0.00999963
0.0043255 0.00582855 0.00999903
0.00432143 0.00416142 0.0099991
0.00752175 0.00998359 0.00861418
0.00246503 -3.01521e-06 0.00861156
0.00998678 0.00571798 0.003363
0 0.00302218 0.00691532
0.00998205 0.00399227 0.0084996
0.00848318 0.00399726 1.97532e-07
0.00997449 0.00268242 0.0015415
0 0.00244495 0.00857025
0.00244604 0.00856816 0.00999951
0.00748548 -1.84473e-05 0.00861406
0.00846621 0.00260352 0.00999759
0.00883565 0.00417292 0.00999745
0.00567563 0.00998975 0.0058327
0.00518512 0.00757573 0.00503206
0.00564756 0.00998969 0.00421483
0.00697752 0.00998557 0.00692538
0.00302072 0.00691329 0.0099994
0.00415753 0.00432457 4.26134e-07
0.00282165 -4.07249e-06 0.00440481
0.00313787 -4.5435e-06 0.00582558
0.00998007 0.00416928 0.00112493
0.00363826 0.00833316 0.00158836
0.00998165 0.00430401 0.0041655
0.00665721 0.00576071 2.94646e-07
0.00859346 0.00997933 0.00250634
0 0.00848692 0.00262374
0.00135221 0.00999966 0.00405989
0 0.00885053 0.00419359
0.00419525 0.00884429 1.65611e-07
0.00420897 0.00999358 0.00168773
0.00499016 0.00478435 0.00237898
0.00720465 0.00450643 3.61999e-07
0.00561666 -1.21111e-05 0.00421561
0.00564479 -1.20488e-05 0.00583313
0.00131374 0.00999967 0.00241807
0.00854519 0.00242349 2.96136e-07
0.00998353 0.00449639 0.00721741
0.00712033 0.00998494 0.00499937
0.00573006 0.0033541 0.00999866
0.00244591 -3.1797e-06 0.00135678
0.009976 0.00241859 0.00856777
0.00239185 0.00478976 0.00499996
0.00582026 0.00431979 4.92581e-07
0.00830561 0.00578899 -1.67924e-08
0.00548475 0.00999049 0.00721967
0.00998225 0.00430459 0.0058317
0.00540754 0.00999029 0.00277535
0.00708471 -1.69044e-05 0.00500006
0.00283933 0.00999732 0.00440438
0 0.00452174 0.00721958
0.00452011 0.00721447 0.00999889
0.00545447 -1.12672e-05 0.00721964
0.00359818 0.00507043 0.00359659
0.00425652 0.00999371 0.00500794
0.00423037 -7.77016e-06 0.00500858
0.00366633 0.0052134 0.00617451
0 0.005744 0.00499998
0 0.00433013 0.00583333
0.00499292 0.00573706 4.09488e-07
0.00498053 0.00633226 0.00355377
0.00537716 -1.1444e-05 0.00277624
0.00998742 0.00571882 0.00499854
0.00368803 0.00640434 0.00484388
0.00573585 0.00499113 0.00999859
0.00998631 0.00574875 0.00158655
0 0.00666667 0
0.00858577 0.00750073 -3.0722e-07
0.0033167 -6.01053e-06 8.43858e-07
0 0.01 0.00666667
0.00500629 0.00999161 0.00999889
0 0.00288419 0.00499914
0.00999302 0.00746376 0.00137381
0.00998941 0.00664105 -4.90691e-07
0 0.005 0.01
0.00498367 0.00287576 4.20247e-07
0 0.005 0
0.0099647 -2.80831e-05 0.00333289
0.0100048 0.0099742 0.00666438
0.00419349 0.00726895 2.36056e-07
0.00997632 0.00285798 0.00499791
0.00497643 -1.07646e-05 9.05523e-07
0 0 0.00666667
0.00379055 0.00361263 0.00522631
0.00497875 -1.02769e-05 0.00999853
0.00996595 -2.78239e-05 0.00666487
0 0 0.005
0.00878414 0.00997841 0.00121948
0.00999805 0.00875404 0.00121937
0.0099653 -2.79068e-05 0.00499891
0.00998291 0.00497398 -2.61812e-07
0.00121566 0.00121926 -4.70139e-09
0 0.00122008 0.00122008
0 0.00333333 0.01
0 0.00666667 0.01
0.0087791 0.00875867 -5.00075e-07
0.0100035 0.00997385 0.00333199
0.00421958 0.00999366 0.00339948
0.00999301 0.00664185 0.00999703
0 0.00333333 0
0 0.00122008 0.00877992
0.00121497 -8.10803e-07 0.0087797
0.00121613 0.00121952 0.0100001
0.00878674 0.00997896 0.00877766
0.00122003 0.00877945 0.00999988
0 0.00877992 0.00877992
0.0100009 0.00875473 0.00877713
0.00667174 0.00998588 -3.94529e-07
0.00996859 0.00119235 0.00122011
0.00122101 0.00999946 0.0087801
0.00878264 0.00875942 0.00999743
0.00998647 0.00497487 0.00999706
0 0 0.00333333
0.00663713 -1.6035e-05 9.1881e-07
0.0087456 -2.36789e-05 0.00122062
0.00120608 -8.40516e-07 0.00121209
0 0.00877992 0.00122008
0.00122006 0.0087794 1.00575e-07
0.00121239 0.00999951 0.00121143
0.00997138 0.00119292 0.00877725
0.00875339 0.00119752 0.0099974
0.00664023 -1.55625e-05 0.0099978
0.00874983 0.00119693 3.8295e-07
0.00874836 -2.31866e-05 0.00877746
0.00997648 0.00330676 -7.25606e-08
0.00333802 0.00999555 0.00999962
0.00246195 0.00999786 0.00135636
0.0066744 0.00998656 0.00999837
0.00997998 0.00330764 0.00999706
0 0.01 0.005
0.00262421 0.00848462 1.90558e-07
0.0100041 0.00997404 0.00499826
0 0.01 0.00333333
0 0.00166667 0
0.0099641 -2.83267e-05 0.00166676
0 0.00166667 0.01
0 0.00833333 0
0.00999599 0.00830744 -7.08214e-07
0.00996658 -2.78888e-05 0.00833069
0.010003 0.00997364 0.00166574
0.0100054 0.00997423 0.00833067
0.00166894 0.00999853 0.00999991
0 0.01 0.00833333
0.00833766 0.0099799 -5.79265e-07
0.00829965 -2.22711e-05 6.38418e-07
0.00830316 -2.17675e-05 0.00999731
0.00834084 0.00998047 0.00999767
0 0 0.00833333
0.00999961 0.00830827 0.00999699
0.00165805 -2.08628e-06 2.63286e-07
0 0 0.00166667
0.00333765 0.00999571 8.49203e-08
0.00997354 0.00163966 0.009997
0.00996998 0.00163903 6.14127e-08
0.00165905 -1.7188e-06 0.01
0.00166871 0.00999881 7.87707e-08
0 0.01 0.00166667
0.0100061 0.00997426 0.00999706
0 0 0.01
0.0100025 0.00997346 -9.7132e-07
0.00996715 -2.80002e-05 0.00999674
0 0.01 0.01
0.00996354 -2.85247e-05 3.06515e-07
0 0.01 0
0 0 0
0.00500496 0.00999111 -1.04396e-07
0.00331837 -5.42747e-06 0.00999913
0 0.00833333 0.01

CELLS 343 686
1 0
1 1
1 2
1 3
1 4
1 5
1 6
1 7
1 8
1 9
1 10
1 11
1 12
1 13
1 14
1 15
1 16
1 17
1 18
1 19
1 20
1 21
1 22
1 23
1 24
1 25
1 26
1 27
1 28
1 29
1 30
1 31
1 32
1 33
1 34
1 35
1 36
1 37
1 38
1 39
1 40
1 41
1 42
1 43
1 44
1 45
1 46
1 47
1 48
1 49
1 50
1 51
1 52
1 53
1 54
1 55
1 56
1 57
1 58
1 59
1 60
1 61
1 62
1 63
1 64
1 65
1 66
1 67
1 68
1 69
1 70
1 71
1 72
1 73
1 74
1 75
1 76
1 77
1 78
1 79
1 80
1 81
1 82
1 83
1 84
1 85
1 86
1 87
1 88
1 89
1 90
1 91
1 92
1 93
1 94
1 95
1 96
1 97
1 98
1 99
1 100
1 101
1 102
1 103
1 104
1 105
1 106
1 107
1 108
1 109
1 110
1 111
1 112
1 113
1 114
1 115
1 116
1 117
1 118
1 119
1 120
1 121
1 122
1 123
1 124
1 125
1 126
1 127
1 128
1 129
1 130
1 131
1 132
1 133
1 134
1 135
1 136
1 137
1 138
1 139
1 140
1 141
1 142
1 143
1 144
1 145
1 146
1 147
1 148
1 149
1 150
1 151
1 152
1 153
1 154
1 155
1 156
1 157
1 158
1 159
1 160
1 161
1 162
1 163
1 164
1 165
1 166
1 167
1 168
1 169
1 170
1 171
1 172
1 173
1 174
1 175
1 176
1 177
1 178
1 179
1 180
1 181
1 182
1 183
1 184
1 185
1 186
1 187
1 188
1 189
1 190
1 191
1 192
1 193
1 194
1 195
1 196
1 197
1 198
1 199
1 200
1 201
1 202
1 203
1 204
1 205
1 206
1 207
1 208
1 209
1 210
1 211
1 212
1 213
1 214
1 215
1 216
1 217
1 218
1 219
1 220
1 221
1 222
1 223
1 224
1 225
1 226
1 227
1 228
1 229
1 230
1 231
1 232
1 233
1 234
1 235
1 236
1 237
1 238
1 239
1 240
1 241
1 242
1 243
1 244
1 245
1 246
1 247
1 248
1 249
1 250
1 251
1 252
1 253
1 254
1 255
1 256
1 257
1 258
1 259
1 260
1 261
1 262
1 263
1 264
1 265
1 266
1 267
1 268
1 269
1 270
1 271
1 272
1 273
1 274
1 275
1 276
1 277
1 278
1 279
1 280
1 281
1 282
1 283
1 284
1 285
1 286
1 287
1 288
1 289
1 290
1 291
1 292
1 293
1 294
1 295
1 296
1 297
1 298
1 299
1 300
1 301
1 302
1 303
1 304
1 305
1 306
1 307
1 308
1 309
1 310
1 311
1 312
1 313
1 314
1 315
1 316
1 317
1 318
1 319
1 320
1 321
1 322
1 323
1 324
1 325
1 326
1 327
1 328
1 329
1 330
1 331
1 332
1 333
1 334
1 335
1 336
1 337
1 338
1 339
1 340
1 341
1 342

CELL_TYPES 343
1
1
1
1
1
1
1
1
1
1
1
1
1
1
1
1
1
1
1
1
1
1
1
1
1
1
1
1
1
1
1
1
1
1
1
1
1
1
1
1
1
1
1
1
1
1
1
1
1
1
1
1
1
1
1
1
1
1
1
1
1
1
1
1
1
1
1
1
1
1
1
1
1
1
1
1
1
1
1
1
1
1
1
1
1
1
1
1
1
1
1
1
1
1
1
1
1
1
1
1
1
1
1
1
1
1
1
1
1
1
1
1
1
1
1
1
1
1
1
1
1
1
1
1
1
1
1
1
1
1
1
1
1
1
1
1
1
1
1
1
1
1
1
1
1
1
1
1
1
1
1
1
1
1
1
1
1
1
1
1
1
1
1
1
1
1
1
1
1
1
1
1
1
1
1
1
1
1
1
1
1
1
1
1
1
1
1
1
1
1
1
1
1
1
1
1
1
1
1
1
1
1
1
1
1
1
1
1
1
1
1
1
1
1
1
1
1
1
1
1
1
1
1
1
1
1
1
1
1
1
1
1
1
1
1
1
1
1
1
1
1
1
1
1
1
1
1
1
1
1
1
1
1
1
1
1
1
1
1
1
1
1
1
1
1
1
1
1
1
1
1
1
1
1
1
1
1
1
1
1
1
1
1
1
1
1
1
1
1
1
1
1
1
1
1
1
1
1
1
1
1
1
1
1
1
1
1
1
1
1
1
1
1
1
1
1
1
1
1
1
1
1
1
1
1
1
1
1
1
1
1
1
1
1
1
1
1
1
1
1
1
1
1

POINT_DATA 343
FIELD FieldData 8

NodeID_(#) 1 343 int
0
1
2
3
4
5
6
7
8
9
10
11
12
13
14
15
16
17
18
19
20
21
22
23
24
25
26
27
28
29
30
31
32
33
34
35
36
37
38
39
40
41
42
43
44
45
46
47
48
49
50
51
52
53
54
55
56
57
58
59
60
61
62
63
64
65
66
67
68
69
70
71
72
73
74
75
76
77
78
79
80
81
82
83
84
85
86
87
88
89
90
91
92
93
94
95
96
97
98
99
100
101
102
103
104
105
106
107
108
109
110
111
112
113
114
115
116
117
118
119
120
121
122
123
124
125
126
127
128
129
130
131
132
133
134
135
136
137
138
139
140
141
142
143
144
145
146
147
148
149
150
151
152
153
154
155
156
157
158
159
160
161
162
163
164
165
166
167
168
169
170
171
172
173
174
175
176
177
178
179
180
181
182
183
184
185
186
187
188
189
190
191
192
193
194
195
196
197
198
199
200
201
202
203
204
205
206
207
208
209
210
211
212
213
214
215
216
217
218
219
220
221
222
223
224
225
226
227
228
229
230
231
232
233
234
235
236
237
238
239
240
241
242
243
244
245
246
247
248
249
250
251
252
253
254
255
256
257
258
259
260
261
262
263
264
265
266
267
268
269
270
271
272
273
274
275
276
277
278
279
280
281
282
283
284
285
286
287
288
289
290
291
292
293
294
295
296
297
298
299
300
301
302
303
304
305
306
307
308
309
310
311
312
313
314
315
316
317
318
319
320
321
322
323
324
325
326
327
328
329
330
331
332
333
334
335
336
337
338
339
340
341
342

Component_(#) 1 343 int
0
0
0
0
0
0
0
0
0
0
0
0
0
0
0
0
0
0
0
0
0
0
0
0
0
0
0
0
0
0
0
0
0
0
0
0
0
0
0
0
0
0
0
0
0
0
0
0
0
0
0
0
0
0
0
0
0
0
0
0
0
0
0
0
0
0
0
0
0
0
0
0
0
0
0
0
0
0
0
0
0
0
0
0
0
0
0
0
0
0
0
0
0
0
0
0
0
0
0
0
0
0
0
0
0
0
0
0
0
0
0
0
0
0
0
0
0
0
0
0
0
0
0
0
0
0
0
0
0
0
0
0
0
0
0
0
0
0
0
0
0
0
0
0
0
0
0
0
0
0
0
0
0
0
0
0
0
0
0
0
0
0
0
0
0
0
0
0
0
0
0
0
0
0
0
0
0
0
0
0
0
0
0
0
0
0
0
0
0
0
0
0
0
0
0
0
0
0
0
0
0
0
0
0
0
0
0
0
0
0
0
0
0
0
0
0
0
0
0
0
0
0
0
0
0
0
0
0
0
0
0
0
0
0
0
0
0
0
0
0
0
0
0
0
0
0
0
0
0
0
0
0
0
0
0
0
0
0
0
0
0
0
0
0
0
0
0
0
0
0
0
0
0
0
0
0
0
0
0
0
0
0
0
0
0
0
0
0
0
0
0
0
0
0
0
0
0
0
0
0
0
0
0
0
0
0
0
0
0
0
0
0
0
0
0
0
0
0
0
0
0
0
0
0
0
0
0
0
0
0
0
0
0
0
0
0
0
0
0
0
0
0
0

NodalMass_(kg) 1 343 double
3.15563e-06
1.41304e-05
2.20912e-06
1.71484e-05
8.42e-06
9.09306e-06
9.93033e-06
7.52198e-06
6.81096e-06
5.58223e-06
3.10888e-06
1.07575e-05
4.87011e-06
1.64955e-05
3.0246e-06
8.05984e-06
6.703e-06
1.0877e-05
4.18978e-06
8.16106e-06
6.14143e-06
1.17902e-05
2.23114e-06
4.25176e-06
1.09915e-05
7.41467e-06
4.21871e-06
3.92484e-06
3.08766e-06
1.31268e-05
7.72627e-06
1.65404e-05
1.19037e-05
7.29666e-06
3.81683e-06
1.11001e-05
3.81317e-06
1.39137e-05
6.37414e-06
8.00975e-06
7.6712e-06
1.18847e-05
1.6399e-05
2.78633e-06
8.93599e-06
2.58087e-06
7.57362e-06
4.23241e-06
1.31286e-05
3.80168e-06
2.7746e-06
7.16776e-06
1.21307e-05
5.11765e-06
8.19728e-06
4.58094e-06
2.79503e-06
3.26126e-06
4.12443e-06
2.11915e-06
3.35177e-06
3.61669e-06
1.56838e-05
7.33679e-06
8.24695e-06
5.00369e-06
2.82625e-06
7.20276e-06
3.26815e-06
4.18751e-06
2.02785e-06
2.42152e-06
3.11835e-06
5.97459e-06
5.87101e-06
4.09374e-06
5.45463e-06
2.28825e-06
4.49759e-06
4.38192e-06
4.50892e-06
4.39234e-06
4.27273e-06
5.32031e-06
1.53201e-06
2.38869e-06
2.02885e-06
4.38798e-06
3.17972e-06
3.14298e-06
4.61567e-06
5.87645e-06
8.18088e-06
2.48341e-06
1.53815e-05
3.49683e-06
7.35227e-06
2.01314e-06
2.0408e-06
7.98183e-06
4.41293e-06
7.1389e-06
1.20123e-06
5.03343e-06
1.61257e-06
4.12601e-06
8.73748e-06
4.37849e-06
7.97173e-06
2.13557e-06
3.38137e-06
9.48623e-06
7.40262e-06
1.80226e-06
2.10222e-06
7.98889e-06
1.87983e-06
7.44814e-06
4.19782e-06
2.37156e-06
4.31705e-06
6.06441e-06
4.30905e-06
2.16843e-06
1.8986e-06
1.81294e-06
3.89762e-06
2.44299e-06
1.65628e-06
8.01374e-06
1.64513e-06
2.3931e-06
3.01363e-06
2.99431e-06
1.36541e-06
1.87293e-06
2.09622e-06
1.94762e-06
1.87618e-06
6.37913e-06
4.58628e-06
2.02767e-06
1.61999e-06
2.41284e-06
3.8865e-06
4.44973e-06
2.29839e-06
1.17349e-05
3.11811e-06
1.354e-06
3.45063e-06
1.81846e-06
2.9382e-06
1.37381e-06
2.41464e-06
2.10451e-06
2.63927e-06
2.14166e-06
1.7943e-06
3.19976e-06
1.36989e-06
2.43489e-06
2.08158e-06
1.3601e-06
2.17203e-06
1.89924e-06
3.16996e-06
2.6119e-06
2.37677e-06
1.60225e-06
1.90684e-06
5.49206e-06
1.87878e-06
3.14313e-06
2.97301e-06
1.18454e-06
1.89263e-06
2.04166e-06
2.73572e-06
2.42405e-06
3.23083e-06
3.19752e-06
3.2142e-06
1.94492e-06
1.61196e-06
1.86876e-06
3.22435e-06
2.1114e-06
2.96917e-06
6.15288e-06
2.3097e-06
2.39729e-06
2.38029e-06
2.64508e-06
1.66557e-06
1.82377e-06
2.06583e-06
5.73271e-06
2.08467e-06
2.18324e-06
2.43522e-06
3.1188e-06
3.17316e-06
2.05447e-06
1.9592e-06
3.05718e-06
6.44327e-06
2.08796e-06
2.72615e-06
2.15709e-06
1.86812e-06
2.0028e-06
2.10999e-06
2.88994e-06
2.3222e-06
2.3979e-06
1.97629e-06
6.4127e-06
2.16225e-06
3.29198e-06
2.10223e-06
2.66566e-06
1.94415e-06
2.91865e-06
2.58116e-06
2.11703e-06
2.09534e-06
1.91719e-06
7.06046e-06
2.25203e-06
2.06378e-06
6.28159e-06
2.12147e-06
2.90924e-06
2.12921e-06
6.4487e-06
1.41701e-06
2.0682e-06
6.58062e-06
2.52584e-06
2.39732e-06
7.42191e-07
2.22368e-06
7.06751e-07
7.00657e-07
8.93749e-07
2.53536e-06
2.26535e-06
1.33607e-06
7.84725e-07
2.32303e-06
6.06694e-07
6.68276e-07
6.84307e-07
2.51242e-06
2.31629e-06
7.8367e-07
6.80839e-07
6.22692e-06
6.7471e-07
6.65305e-07
7.01158e-07
1.8232e-06
1.90695e-06
6.86722e-07
7.04792e-07
1.86445e-06
2.28572e-06
6.8045e-07
7.16005e-07
1.82373e-06
6.01079e-07
2.02791e-06
7.4579e-07
5.74423e-07
1.80052e-06
1.454e-06
2.2702e-06
1.80636e-06
2.15356e-06
1.79089e-06
1.79456e-06
6.8231e-07
2.24737e-06
1.45239e-06
1.79556e-06
6.97875e-07
6.24265e-07
6.62717e-07
1.44627e-06
1.40138e-06
2.15258e-06
1.82851e-06
1.3994e-06
1.43932e-06
2.19226e-06
6.97732e-07
1.77726e-06
1.79162e-06
6.54258e-07
7.3397e-07
2.34895e-06
7.10392e-07
6.56982e-07
6.26314e-07
2.18926e-06
6.12493e-07
6.03901e-07
5.92831e-07
5.12031e-07
5.11667e-07
4.9467e-07
4.97016e-07
4.96269e-07
5.33079e-07
4.94191e-07
4.97855e-07
4.86862e-07
4.90626e-07
4.94649e-07
4.94954e-07
4.91922e-07
4.89615e-07
4.96354e-07
4.95189e-07
4.82188e-07
1.10854e-06
5.3299e-07
5.44763e-07
5.36655e-07
5.15417e-07
5.01772e-07
5.53774e-07
5.53774e-07
5.53774e-07
5.53774e-07
5.53774e-07
5.53774e-07
5.50785e-07
5.50785e-07
7.45291e-07
7.11668e-07
4.9897e-07

NodalForce_(N) 3 343 double
-7.02027e-08 -3.13684e-09 4.82285e-09
-5.23508e-07 4.01161e-09 -7.3285e-08
0.000356299 0.000377266 0.000419128
-6.97679e-07 -8.36973e-08 -4.97905e-08
-8.83864e-07 -5.05963e-07 -3.41203e-07
-4.4665e-07 -3.06441e-07 -4.21008e-07
-5.38651e-07 -9.82392e-07 -7.65899e-07
-4.91541e-07 -4.13479e-07 -3.88254e-07
-4.96831e-07 -6.24224e-07 -4.88219e-07
-2.29032e-07 -1.25093e-07 -2.22338e-07
-1.1403e-07 -1.9514e-07 -8.80324e-08
-7.65689e-07 -7.53185e-07 -5.40194e-07
-4.31953e-07 -3.77886e-07 -1.77907e-07
1.36554e-08 -4.65875e-08 -7.67562e-08
-2.72183e-08 -1.11794e-07 -8.39019e-08
2.39364e-07 -4.95529e-07 -5.97843e-07
-4.41931e-08 -3.2366e-07 -4.17885e-07
-2.50268e-07 -4.48391e-08 -1.08751e-07
-0.00127774 0.000666711 -0.000163041
-1.47905e-07 -3.16734e-09 -3.4109e-08
-7.81644e-07 -6.11472e-07 -3.29413e-07
-1.70916e-06 -1.72347e-06 -9.12427e-07
-0.000509897 -0.00159326 -0.000794803
-6.05895e-07 -2.78132e-07 -1.24817e-08
-1.53387e-06 -7.51247e-07 -2.49468e-07
-6.02539e-07 -1.39867e-07 -9.35644e-08
-1.32676e-07 -3.19788e-08 -1.55922e-08
-6.68974e-07 -3.27351e-07 -4.73867e-08
-1.54314e-07 -3.66903e-09 6.40455e-09
-4.19827e-07 -1.69465e-08 -4.07326e-08
-4.21836e-07 -4.09995e-08 -1.04642e-07
1.76898e-06 -1.65561e-06 -1.50078e-06
-1.00025e-07 -1.27311e-06 -1.09456e-06
9.24426e-08 -8.38659e-07 -6.67591e-07
4.72157e-07 -7.25763e-07 -3.97559e-07
5.47055e-07 -9.60425e-07 -8.63086e-07
5.34573e-07 -6.05542e-07 -3.31879e-07
4.36968e-07 -1.44618e-06 -8.36726e-07
-1.7484e-07 -8.19607e-08 -1.47534e-07
-1.09713e-07 -1.56963e-07 -2.72533e-07
-6.08071e-07 -3.44207e-07 -1.9712e-07
5.21828e-07 -3.20301e-07 -5.14772e-07
1.13034e-07 1.13125e-08 -1.02624e-07
9.42996e-08 -5.47656e-08 -4.03818e-08
1.33328e-07 -1.66951e-07 -2.4552e-07
0.000939321 0.00074336 -0.000381642
-1.27971e-07 4.3547e-09 -2.8785e-08
-0.000222381 0.000997006 2.44191e-05
6.90545e-08 -2.19761e-09 -1.26273e-07
4.69074e-08 -7.21936e-10 -1.64201e-09
2.80234e-07 -2.07345e-07 -2.01523e-07
2.4655e-07 -3.03692e-07 -4.35297e-07
-2.06403e-07 2.74331e-09 -8.25446e-08
-2.38538e-08 2.02544e-09 -8.52984e-08
-3.53035e-08 4.86984e-09 -3.9637e-08
2.5096e-07 -8.23124e-07 -5.58076e-07
0.000779111 0.000583432 0.000679388
-1.00183e-07 1.31512e-09 5.26644e-09
-8.27824e-05 -2.81657e-05 -0.000319467
1.97409e-07 -3.78795e-07 -2.48966e-07
7.94573e-08 -1.94993e-08 -2.96313e-08
-6.50741e-07 -9.21456e-07 -3.60136e-07
-3.07216e-06 -2.61823e-06 -8.91122e-07
-8.05098e-07 -1.07834e-06 -5.80318e-07
-7.97736e-07 -3.45292e-07 -1.77249e-07
5.62643e-09 -1.89113e-08 -1.86664e-08
-2.04176e-07 -1.14342e-07 -4.01648e-08
-1.14114e-07 -3.8145e-07 -4.42905e-07
1.95285e-07 -5.92481e-07 -3.37998e-07
-1.03175e-06 -9.51993e-07 -3.37474e-07
-1.65152e-07 -3.87015e-08 -2.38615e-09
6.71505e-09 -5.44715e-08 -2.29774e-08
-3.47822e-07 -1.39827e-07 -3.22408e-08
-2.60533e-08 -1.09823e-07 -2.48086e-07
-3.31873e-07 -4.58867e-08 -9.52884e-08
0.00141576 0.000551497 0.000331255
-4.51925e-07 -1.85273e-07 -1.86042e-07
-7.19992e-08 -1.14966e-09 1.04808e-09
4.81495e-07 -2.24946e-07 -2.24559e-07
5.66141e-07 -3.32731e-07 -2.56225e-07
3.38083e-07 -1.82586e-07 -1.47274e-07
3.02064e-07 -1.05664e-07 -1.00569e-07
5.4633e-07 -7.81348e-07 -4.86571e-07
-1.99347e-07 -2.64375e-09 -8.0317e-08
5.92724e-05 -0.00108235 0.000380207
-6.39438e-08 2.1842e-10 4.17116e-09
9.98718e-05 -0.000684508 0.000417552
-0.000778109 -0.000336239 7.11736e-05
-0.000284855 0.000244237 -0.000159922
-1.58788e-07 -1.21332e-08 1.16706e-09
6.22815e-08 2.20314e-09 2.1309e-10
3.74499e-08 -1.36378e-07 -2.67089e-07
1.51827e-07 -9.57104e-09 -1.97693e-07
-1.14037e-07 -2.69496e-07 -1.67987e-07
-1.76733e-06 -2.42071e-06 -1.45184e-06
-8.25408e-07 -5.96442e-07 -1.75945e-07
-1.16205e-06 -7.48608e-07 -3.18122e-07
-2.62795e-07 -4.52904e-07 -1.85618e-07
-6.91529e-05 9.63975e-05 1.01939e-06
4.66294e-07 -4.78779e-07 -5.25579e-07
-8.87904e-07 -4.90373e-07 -5.19269e-08
-9.23494e-07 -5.1431e-07 -2.10474e-07
2.84743e-08 -2.75576e-08 -2.31184e-08
8.00399e-07 -7.95564e-07 -4.8528e-07
-1.29264e-07 -4.15278e-08 -3.23493e-10
-9.59228e-07 -5.64936e-07 -1.03761e-07
2.00347e-07 -5.23443e-07 -4.53855e-07
-9.80201e-07 -9.8196e-07 -4.05737e-07
-9.79638e-07 -8.26653e-07 -5.01281e-07
2.0616e-08 -9.0012e-10 -1.23032e-09
-9.41698e-08 -2.59232e-07 -8.50293e-08
-2.25264e-07 -3.06567e-07 -2.59991e-07
-4.06625e-07 -2.67141e-07 -2.10585e-07
-0.000735362 -0.000353743 -0.000781565
-4.21423e-07 -5.45843e-07 -1.79573e-07
-3.00198e-08 -3.35116e-09 -4.40424e-08
1.73569e-07 -3.52397e-07 -1.67318e-07
-5.42213e-08 -8.70288e-07 -6.13013e-07
1.63146e-07 -3.44829e-07 -1.34092e-07
-4.39795e-07 -3.93741e-07 -1.81182e-07
-6.87791e-07 -1.08972e-06 -4.86509e-07
-4.98911e-07 -8.65351e-07 -5.56013e-07
-1.01487e-07 -3.61703e-08 -1.77835e-08
0.000193511 0.000156141 0.000125512
-2.61577e-08 -1.26054e-08 -5.53644e-09
1.12491e-07 -3.25375e-07 -2.05965e-07
-5.92667e-08 -2.21132e-07 -5.11274e-08
-0.00011194 -0.000739291 -0.000408458
1.76436e-08 4.12176e-09 -1.94056e-09
-1.09894e-07 -1.77838e-07 -2.15092e-07
3.01963e-07 -2.6403e-07 -1.64054e-07
3.78774e-07 -4.3766e-07 -2.88406e-07
-1.8059e-07 -2.8889e-07 -1.52034e-07
7.87095e-09 -2.65977e-07 -2.17954e-07
0.000571977 -0.00112873 -0.000101948
1.59305e-08 -8.20503e-09 -2.59578e-09
7.13441e-05 4.0284e-05 -0.000224016
-5.22695e-07 -4.59078e-07 -1.25436e-07
5.34018e-08 -3.40525e-07 -1.68522e-07
-1.49617e-07 -7.71397e-07 -4.28701e-07
2.90294e-07 -5.54776e-07 -4.29762e-07
-1.85555e-07 -3.14209e-07 -1.6156e-07
-3.26819e-07 -3.69943e-07 -1.68621e-07
-3.39219e-07 -6.12151e-07 -2.90369e-07
-0.00105067 0.000278337 9.13292e-05
-6.02196e-07 -5.7207e-07 -2.78442e-07
-3.7099e-07 -1.92064e-07 -5.17684e-08
-1.08027e-06 -1.38027e-06 -6.94895e-07
-2.54733e-07 -6.30852e-07 -2.74299e-07
8.05061e-08 -5.9406e-08 -4.55103e-08
-2.05147e-08 -6.74594e-08 -4.54025e-08
-6.98707e-08 -1.58539e-08 -9.02933e-11
-0.000260697 -0.000721957 -6.25466e-05
3.79516e-08 -2.48181e-07 -1.62435e-07
2.07591e-07 -2.65887e-07 -1.39316e-07
3.08696e-07 -2.06235e-07 -1.58267e-07
0.000512042 -0.000844606 0.000259631
-0.00144651 0.000118601 0.000514663
1.01391e-07 -1.13586e-07 -1.17655e-07
-2.53676e-07 -6.90594e-07 -3.84474e-07
-1.62263e-07 -1.11043e-07 -4.36932e-08
1.08441e-07 -4.31455e-08 -2.80623e-08
-4.74405e-07 -3.47564e-07 -5.5049e-08
9.2598e-08 -5.27874e-08 -6.91804e-08
2.77154e-07 -3.86197e-07 -2.65105e-07
2.46987e-07 -2.32142e-07 -1.80147e-07
-5.43407e-07 -3.51758e-07 -6.63478e-08
-1.5721e-07 -1.01356e-09 1.5191e-09
5.19163e-08 -2.42851e-07 -7.42475e-08
1.28363e-07 -2.08514e-07 -7.96396e-08
-9.7409e-08 -7.54565e-08 -2.43609e-08
-1.14836e-07 -3.59419e-07 -3.05404e-07
-5.0418e-07 -3.74713e-07 -7.49567e-08
9.03015e-08 4.40545e-09 -3.56228e-08
1.10854e-07 -2.75523e-08 -8.75743e-08
1.96495e-08 -1.54652e-08 -3.45518e-08
3.26451e-07 -2.38234e-07 -1.54205e-07
-8.929e-08 -6.74065e-08 -2.13122e-08
-4.38545e-08 -5.06019e-07 -2.62531e-07
0.000274805 -0.000715596 -0.000581272
-5.62664e-08 -6.37007e-07 -3.92108e-07
-4.35936e-07 -4.88069e-07 -1.16674e-07
-5.00431e-07 -7.43171e-07 -2.46822e-07
0.000267974 -0.000807433 0.000399089
5.66269e-08 -1.10798e-08 -1.59931e-08
-3.16338e-07 -3.52861e-07 -1.68002e-07
-1.90133e-07 -5.18463e-07 -3.08795e-07
3.97321e-09 -3.14405e-07 -2.12017e-07
2.21754e-07 -2.16647e-07 -1.65864e-07
3.77191e-08 -1.8377e-07 -2.71514e-07
1.2385e-07 -1.69715e-07 -1.10473e-07
3.20858e-07 -2.567e-07 -1.86822e-07
7.73591e-08 5.82126e-11 -3.34387e-08
-2.20742e-07 -4.012e-08 -5.68475e-09
-1.60954e-07 -7.37218e-08 -2.34205e-08
-1.75072e-07 -9.33179e-08 -2.91934e-08
-2.07267e-07 -4.29268e-07 -1.45135e-07
-1.82487e-07 -1.05471e-07 -6.93684e-08
-1.28501e-07 -4.14185e-07 -2.10541e-07
-1.74583e-07 -1.38412e-07 -3.78423e-08
3.00198e-07 -3.98778e-07 -1.83447e-07
0.000343627 -0.000434349 0.000199587
-2.4351e-08 -9.63521e-09 -1.2579e-08
1.26375e-05 0.000457085 0.00014699
-5.45774e-08 -6.60443e-08 -8.22611e-09
7.90746e-09 -1.38516e-07 -5.60911e-08
-4.82127e-07 -1.56082e-07 -1.70401e-07
-2.53283e-07 -2.0176e-07 -4.94986e-08
-5.16536e-07 -3.41506e-07 -1.13554e-07
-3.62361e-07 -2.67836e-07 -1.14344e-07
-2.72378e-08 -5.96584e-09 -3.37272e-09
-3.93883e-07 -3.63095e-07 -7.23726e-08
-3.08692e-08 -4.0598e-07 -2.53874e-07
3.3129e-07 -3.26509e-07 -2.11105e-07
-2.03162e-08 -1.29003e-07 -1.12746e-07
-2.54908e-07 -8.8932e-08 -7.10544e-09
-1.62484e-07 -4.52963e-07 -2.37086e-07
-1.13308e-07 -4.02436e-09 -6.823e-08
-2.53764e-07 -1.18745e-07 -2.63353e-08
-2.1912e-07 -4.03495e-07 -1.1546e-07
1.96098e-07 -1.38639e-07 -1.065e-07
-1.10462e-07 -5.22241e-07 -2.99849e-07
6.51517e-08 -1.32903e-07 -7.26141e-08
-6.23332e-07 -5.03316e-07 -1.97367e-07
1.62536e-08 -4.991e-08 -3.54835e-08
-0.000752375 -0.000166845 0.000239342
1.30321e-07 -3.83211e-08 -6.41778e-08
-2.71451e-07 -2.20724e-07 -1.02038e-07
-3.21738e-07 -3.65722e-08 -1.48986e-07
8.73279e-08 -1.01811e-07 -7.22599e-08
-2.99175e-07 -1.73188e-07 -5.84784e-08
-1.11753e-07 -2.70098e-08 -1.4868e-07
0.000752098 -0.000815951 6.22699e-06
-0.000254306 -5.712e-05 0.000202485
-1.5646e-07 -3.92446e-08 -1.087e-08
-2.3116e-07 -1.14568e-07 -2.20213e-07
-2.85467e-07 -1.68601e-07 -4.14959e-08
8.10711e-09 -3.7528e-07 -2.23973e-07
-1.58549e-07 -2.10557e-08 -1.49127e-07
8.261e-08 -8.74536e-08 -1.24401e-07
-7.71547e-08 -4.50024e-07 -1.83383e-07
0.000375681 -1.04863e-05 0.000279484
5.59635e-09 -2.8613e-07 -9.04192e-08
-1.02729e-07 -5.10918e-08 7.64013e-09
0.000581018 -0.000514035 -3.25966e-06
1.07402e-07 -5.87881e-08 -2.52918e-08
0.0010063 -0.000261787 -0.000214325
8.86629e-08 -4.11898e-07 -1.66186e-07
-1.27569e-08 -2.45871e-07 -7.19791e-08
8.30298e-05 -0.000339206 3.74838e-05
-3.20796e-07 -1.3207e-07 -1.78586e-08
-0.000263879 -0.000299347 -0.000260686
-1.72842e-07 -2.00797e-07 -6.06596e-08
1.42166e-07 -1.50902e-07 -8.25823e-08
-1.26825e-07 -3.85616e-08 -7.21031e-09
-2.60904e-07 -5.11171e-07 -2.46284e-07
-1.669e-07 -9.60576e-08 4.01419e-09
-0.000696 -0.000729335 -8.87557e-05
-2.83902e-07 -7.12453e-08 -1.50854e-07
-5.86977e-08 -7.28442e-08 -3.08393e-08
-1.43853e-07 -1.96058e-07 -7.8737e-08
-0.000591283 -0.000546029 -2.26028e-05
2.11484e-07 -3.14934e-07 -1.13432e-07
1.74331e-07 -3.73141e-07 -1.41293e-07
-1.64467e-07 -2.03863e-07 -7.30779e-08
-5.49809e-08 -1.40303e-07 -3.6459e-08
-5.52248e-08 -8.5065e-09 1.38183e-09
0.000159133 0.000683501 -0.000292193
-0.000131704 0.000117877 9.88718e-05
2.76648e-05 -0.000246615 6.59014e-05
1.02909e-07 -2.73919e-07 -8.47304e-08
1.00534e-07 -1.34157e-07 -6.00683e-08
3.76239e-08 -9.14112e-08 -5.47316e-08
8.08637e-08 -1.31998e-07 -8.20875e-08
1.53597e-05 -0.000184457 9.14476e-05