# vtk DataFile Version 4.2
vtk output
ASCII
DATASET UNSTRUCTURED_GRID

POINTS 343 double
0.00113368 0.00419565 -3.06067e-07
0.00219194 0.00498427 0.00217439
0 0.00419538 0.00112517
0.0019517 0.00195621 0.00194126
0.00523586 0.00241995 0.00502903
0.00523327 0.00384075 0.00639381
0.0077117 0.004798 0.0049934
0.0062938 0.00486547 0.00368845
0.00692294 0.00330866 0.00690791
0.00504448 0.00500169 0.00499695
0.00423953 0.00112879 0.00999554
0.00535174 0.0020944 0.00789974
0.00425297 4.33631e-06 0.00831426
0.00203587 0.00200411 0.00803223
0.0043419 0.00254186 0.00999536
0.00702937 0.00646366 0.00694082
0.00647986 0.00619704 0.00517888
0.00228655 0.00218687 0.00514512
0 0.00143586 0.00417514
0.00161135 0.00346714 0.00403653
0.00692284 0.0032147 0.00315781
0.00784978 0.00224035 0.00505806
0 0.00270918 0.00154168
0.00421334 0.00143965 -1.14093e-06
0.0050724 0.00220118 0.00219524
0.00400718 0.00353342 0.00160129
0.00136272 4.48979e-07 0.00405939
0.00424421 4.3778e-06 0.00168591
0.00264983 0.0069542 -6.18595e-07
0.00195425 0.00805408 0.00194403
0.00412667 0.00625345 0.00164334
0.00808257 0.0080075 0.0079889
0.00806047 0.0048395 0.00801384
0.00848213 0.00610482 0.00594088
0.0101026 0.0088583 0.00418469
0.00765058 0.00765541 0.0049585
0.00864271 0.0100043 0.00416108
0.00805295 0.00799303 0.00201231
0.00357774 0.00304186 0.00695757
0.00449048 0.00366966 0.0083204
0.00394369 0.00160919 0.00596673
0.00505173 0.00767724 0.00767278
0.00200708 0.00800943 0.00798898
0.00284789 0.0100006 0.00712621
0.00394906 0.00840539 0.00595591
0 0.00695361 0.00262895
0.00166176 0.00624047 0.00408724
0 0.0040177 0.00850214
0.00233806 0.00498756 0.00766057
0.00144819 0.00417544 0.00999945
0.00725036 0.00713572 0.00998985
0.00618386 0.00598387 0.00841147
0.00206961 0.00794287 0.00474109
0.00307194 0.00694587 0.00646653
0.00160202 0.0060794 0.0059254
0.010111 0.00581845 0.00830329
0 0.00718191 0.00711644
0.0015991 0.00577464 -4.36292e-07
0 0.00577432 0.00158701
0.0101076 0.00719077 0.00710362
0.00290126 0.00335285 0.00999745
0.0101141 0.00145153 0.00416623
0.00814546 0.00197273 0.00197471
0.00849593 0.00353082 0.00399245
0.00377434 0.00165619 0.00412624
0.00152055 0.0100003 0.00581457
0.00285104 2.25356e-06 0.00712626
0.00618337 0.00418597 0.00837003
0.0101043 0.00728252 0.00418677
0.00865748 1.40157e-05 0.00416096
0.00338011 0.00287498 -7.68567e-07
0.00273616 0.00154322 0.00999762
0.00285923 2.4162e-06 0.00283066
0.00485036 0.00520223 0.00755043
0.00319367 0.00315029 0.00316579
0 0.00849157 0.00581511
0.00492143 0.00367942 0.00378349
0.00155339 0.00270948 -3.92828e-07
0.00585477 0.00832811 0.0099924
0.00603422 0.0100022 0.00849893
0.00424749 0.0100012 0.0083141
0.00405438 0.00850507 0.00999576
0.0101046 0.00849948 0.00580406
0.00317625 0.00683683 0.0031493
0 0.00748929 0.00137438
0.00138488 0.00748958 -3.76822e-07
0 0.00287343 0.00335182
0 0.00580816 0.00831736
0 0.00429792 0.00253898
0.00255909 0.00429858 -5.35527e-07
0.00144797 0.00582001 0.00999942
0.00522659 0.00647786 0.00639648
0.00363916 0.00651329 0.0082314
0.00702698 0.00263472 0.00999038
0.00811151 0.00196872 0.00802551
0.00704568 9.90141e-06 0.00307756
0.00608214 0.00167113 0.00360905
0.0101108 0.00288729 0.00334395
0 0.00140616 0.00256446
0.00643172 0.00823111 0.00641544
0.00587636 0.00144211 -1.79038e-06
0.00609502 0.00355717 0.00160039
0.00318011 0.0100008 0.00582353
0.00863893 0.0100044 0.00582471
0.00258624 0.00140785 -5.5603e-07
0.00603878 7.87446e-06 0.00149123
0.00633602 0.00829094 0.0036135
0.00865357 1.3886e-05 0.00582445
0.00627171 0.00167976 0.00635978
0.00141825 0.00256472 0.00999946
0.00718034 0.00718585 -2.59737e-06
0.0052103 0.00769215 0.00216661
0.0059961 0.00609628 0.00159927
0 0.00686719 0.00578184
0.010113 0.00142205 0.00255735
0.00179106 0.00361112 0.00640708
0.0101018 0.00849485 0.00261656
0.00849576 0.00619614 0.00412617
0.00602848 0.0100021 0.00149146
0.00704786 1.00301e-05 0.00691928
0.0101157 0.001451 0.0058084
0.00848705 0.0035826 0.00605205
0.00152116 5.55492e-07 0.0058146
0 0.0013659 0.00748679
0.00138119 5.85094e-07 0.00752852
0.0101064 0.00687608 0.00577099
0.00586428 0.00849387 -1.7154e-06
0 0.0075208 0.00859127
0.00137781 0.00748721 0.00999939
0.00426594 0.00820717 0.00362626
0.00867422 0.0100046 0.00750138
0.0101065 0.00863795 0.00751314
0.00583738 0.00159297 0.00999251
0.00733676 0.00419413 0.00998974
0 0.0057735 0.00666667
0.00138079 0.0100003 0.00752842
0 0.00863025 0.00752641
0.00868345 1.42984e-05 0.0025017
0.0101036 0.0069622 0.00262177
0.00854177 0.00634881 0.00215813
0.00860009 0.00583095 0.00998713
0.00757461 0.0013839 0.00998923
0.008689 1.41203e-05 0.00750154
0.010118 0.00138157 0.00747344
0 0.00143551 0.00581971
0.0060437 7.71922e-06 0.00849918
0.00425522 4.62881e-06 0.00339762
0.0080125 0.00471502 0.0020303
0.0101077 0.00431021 0.0025323
0.00426306 0.0100012 0.00666367
0.00285584 0.0100006 0.00283077
0.00132361 4.91329e-07 0.00241761
0 0.00727418 0.00419576
0.0101091 0.00578409 0.00665449
0.0070341 0.0100029 0.00307758
0.00758189 0.00864118 0.00998911
0 0.00574334 0.00336387
0 0.0043297 0.00416652
0.00694016 0.00578846 0.0099903
0.0101141 0.00303588 0.00690264
0.00426898 4.58696e-06 0.00666361
0.00249878 0.0100005 0.00861002
0.00756343 0.00137592 -2.88878e-06
0.00583137 0.00666939 0.00999249
0.0101091 0.00752949 0.00857697
0.008698 0.00755955 0.00998686
0.00698232 0.00302937 -2.57029e-06
0.00339118 0.0057441 -8.79176e-07
0.00759369 0.00863415 -2.93248e-06
0.00758167 0.0100034 0.00138374
0.00583167 0.00686977 -1.75908e-06
0.00703945 0.00637488 0.00302924
0.00759438 1.15564e-05 0.00138369
0.00291166 0.005 0.00999744
0.0043728 0.00583497 0.00999509
0.004373 0.00416852 0.0099951
0.00758786 0.0100037 0.00860584
0.00250109 2.08465e-06 0.00861016
0.0101057 0.00575426 0.00335609
0 0.00302218 0.00691532
0.0101142 0.00403019 0.00848785
0.00858747 0.00402719 -3.30734e-06
0.0101099 0.00272329 0.00153599
0 0.00244495 0.00857025
0.00246786 0.00857108 0.00999796
0.00760076 1.13989e-05 0.00860611
0.00858351 0.00263423 0.00998722
0.0089499 0.0042034 0.00998643
0.00571995 0.010002 0.00582881
0.0052318 0.00758565 0.00502893
0.0056906 0.010002 0.00421174
0.00703596 0.010003 0.00691931
0.00305088 0.00691603 0.0099972
0.0042018 0.00433139 -1.19111e-06
0.00286197 2.32929e-06 0.0044031
0.0031837 2.75145e-06 0.00582356
0.0101072 0.0042079 0.00111983
0.00366753 0.00833876 0.00158673
0.0101088 0.00434174 0.00415735
0.00672703 0.00577777 -2.29132e-06
0.00866854 0.0100044 0.00250176
0 0.00848692 0.00262374
0.00136244 0.0100004 0.00405947
0 0.00885053 0.00419359
0.00422777 0.00885191 -1.1912e-06
0.00423807 0.0100013 0.00168607
0.00504339 0.00479368 0.00237659
0.00728789 0.00452796 -2.65256e-06
0.0056994 7.1725e-06 0.00421184
0.00572868 7.17422e-06 0.0058289
0.00132336 0.0100003 0.00241763
0.00865899 0.00245612 -3.36856e-06
0.0101119 0.00453359 0.00720652
0.00717901 0.010003 0.00499452
0.00580358 0.00336817 0.00999268
0.0024807 2.03253e-06 0.00135551
0.0101173 0.00245942 0.00855577
0.00241579 0.00479196 0.00499883
0.00588645 0.0043342 -1.94208e-06
0.0083973 0.00581506 -3.33277e-06
0.00552807 0.0100019 0.00721531
0.0101106 0.00434217 0.00582213
0.00544752 0.0100018 0.00277308
0.00719097 1.02994e-05 0.00499458
0.00285879 0.0100006 0.00440321
0 0.00452174 0.00721958
0.00456512 0.00722162 0.00999478
0.00553638 6.71282e-06 0.00721532
0.0036344 0.00507506 0.00359477
0.00428666 0.0100012 0.00500572
0.00429294 4.79489e-06 0.00500572
0.00370391 0.00521806 0.00617255
0 0.005744 0.00499998
0 0.00433013 0.00583333
0.00504277 0.0057459 -1.53417e-06
0.0050284 0.00634101 0.00355106
0.00545629 6.70766e-06 0.00277285
0.0101072 0.00575501 0.00498984
0.00372274 0.00640889 0.00484211
0.00580259 0.00500319 0.00999263
0.0101047 0.00578511 0.00158138
0 0.00666667 0
0.0086728 0.00752687 -3.48667e-06
0.00336411 3.69294e-06 -1.26374e-06
0 0.01 0.00666667
0.00504873 0.0100017 0.00999388
0 0.00288419 0.00499914
0.0101022 0.00749741 0.00136891
0.0101029 0.00667617 -4.76279e-06
0 0.005 0.01
0.00504473 0.00288805 -1.46373e-06
0 0.005 0
0.0101171 1.87086e-05 0.00332538
0.0101048 0.010006 0.0066544
0.00423029 0.00727542 -1.17561e-06
0.0101122 0.00289821 0.00498898
0.00504919 6.56653e-06 -1.98745e-06
0 0 0.00666667
0.00383313 0.0036183 0.00522425
0.00505559 6.08385e-06 0.00999426
0.0101203 1.84827e-05 0.00665427
0 0 0.005
0.00886185 0.0100045 0.00121571
0.0101007 0.00878743 0.00121465
0.0101186 1.85527e-05 0.00498977
0.0101057 0.00501157 -4.56324e-06
0.00122943 0.00122052 -3.18964e-07
0 0.00122008 0.00122008
0 0.00333333 0.01
0 0.00666667 0.01
0.00886286 0.00878533 -3.57418e-06
0.0101013 0.0100059 0.00332527
0.0042488 0.0100012 0.00339771
0.0101127 0.00667607 0.00998359
0 0.00333333 0
0 0.00122008 0.00877992
0.00123075 6.62456e-07 0.00877952
0.00123056 0.00122045 0.00999952
0.00886902 0.0100049 0.00876723
0.00123065 0.00878031 0.00999947
0 0.00877992 0.00877992
0.0101078 0.00878752 0.00876527
0.00672393 0.0100025 -2.4136e-06
0.0101126 0.00123652 0.00121454
0.00123043 0.0100003 0.00877931
0.00887161 0.00878567 0.00998638
0.0101152 0.00501127 0.00998362
0 0 0.00333333
0.00673559 1.0025e-05 -2.93378e-06
0.00887693 1.50732e-05 0.00121558
0.00122138 6.23118e-07 0.00121109
0 0.00877992 0.00122008
0.00122942 0.00878018 -3.43276e-07
0.00122102 0.0100003 0.00121118
0.0101199 0.00123607 0.00876518
0.0088834 0.00123302 0.00998657
0.00674349 9.44425e-06 0.0099911
0.00887395 0.00123363 -3.59905e-06
0.00888406 1.46775e-05 0.00876747
0.0101084 0.0033468 -4.49592e-06
0.00336489 0.0100011 0.00999664
0.00247805 0.0100005 0.00135547
0.0067326 0.0100029 0.00999066
0.0101181 0.00334671 0.00998377
0 0.01 0.005
0.00264442 0.00848754 -6.82718e-07
0.0101029 0.0100059 0.00499013
0 0.01 0.00333333
0 0.00166667 0
0.0101158 1.87388e-05 0.00166051
0 0.00166667 0.01
0 0.00833333 0
0.010101 0.00834101 -4.34024e-06
0.0101223 1.83747e-05 0.00831909
0.0101001 0.0100061 0.00166064
0.0101067 0.0100062 0.00831904
0.00168156 0.0100003 0.00999891
0 0.01 0.00833333
0.00840942 0.0100039 -3.59651e-06
0.0084238 1.4264e-05 -3.74875e-06
0.00843293 1.36068e-05 0.00998769
0.00841856 0.0100046 0.00998731
0 0 0.00833333
0.0101103 0.00834141 0.00998366
0.0016809 1.43772e-06 -5.91079e-07
0 0 0.00166667
0.00335981 0.0100008 -9.40059e-07
0.0101211 0.00168202 0.0099838
0.0101115 0.00168251 -4.55896e-06
0.00168249 1.22039e-06 0.00999898
0.00167959 0.0100003 -5.11193e-07
0 0.01 0.00166667
0.0101085 0.0100064 0.00998374
0 0 0.01
0.0100992 0.0100061 -4.45069e-06
0.0101243 1.81209e-05 0.00998407
0 0.01 0.01
0.0101148 1.90045e-05 -4.88022e-06
0 0.01 0
0 0 0
0.00504121 0.0100016 -1.50967e-06
0.00336863 3.06578e-06 0.00999683
0 0.00833333 0.01

CELLS 343 686
1 0
1 1
1 2
1 3
1 4
1 5
1 6
1 7
1 8
1 9
1 10
1 11
1 12
1 13
1 14
1 15
1 16
1 17
1 18
1 19
1 20
1 21
1 22
1 23
1 24
1 25
1 26
1 27
1 28
1 29
1 30
1 31
1 32
1 33
1 34
1 35
1 36
1 37
1 38
1 39
1 40
1 41
1 42
1 43
1 44
1 45
1 46
1 47
1 48
1 49
1 50
1 51
1 52
1 53
1 54
1 55
1 56
1 57
1 58
1 59
1 60
1 61
1 62
1 63
1 64
1 65
1 66
1 67
1 68
1 69
1 70
1 71
1 72
1 73
1 74
1 75
1 76
1 77
1 78
1 79
1 80
1 81
1 82
1 83
1 84
1 85
1 86
1 87
1 88
1 89
1 90
1 91
1 92
1 93
1 94
1 95
1 96
1 97
1 98
1 99
1 100
1 101
1 102
1 103
1 104
1 105
1 106
1 107
1 108
1 109
1 110
1 111
1 112
1 113
1 114
1 115
1 116
1 117
1 118
1 119
1 120
1 121
1 122
1 123
1 124
1 125
1 126
1 127
1 128
1 129
1 130
1 131
1 132
1 133
1 134
1 135
1 136
1 137
1 138
1 139
1 140
1 141
1 142
1 143
1 144
1 145
1 146
1 147
1 148
1 149
1 150
1 151
1 152
1 153
1 154
1 155
1 156
1 157
1 158
1 159
1 160
1 161
1 162
1 163
1 164
1 165
1 166
1 167
1 168
1 169
1 170
1 171
1 172
1 173
1 174
1 175
1 176
1 177
1 178
1 179
1 180
1 181
1 182
1 183
1 184
1 185
1 186
1 187
1 188
1 189
1 190
1 191
1 192
1 193
1 194
1 195
1 196
1 197
1 198
1 199
1 200
1 201
1 202
1 203
1 204
1 205
1 206
1 207
1 208
1 209
1 210
1 211
1 212
1 213
1 214
1 215
1 216
1 217
1 218
1 219
1 220
1 221
1 222
1 223
1 224
1 225
1 226
1 227
1 228
1 229
1 230
1 231
1 232
1 233
1 234
1 235
1 236
1 237
1 238
1 239
1 240
1 241
1 242
1 243
1 244
1 245
1 246
1 247
1 248
1 249
1 250
1 251
1 252
1 253
1 254
1 255
1 256
1 257
1 258
1 259
1 260
1 261
1 262
1 263
1 264
1 265
1 266
1 267
1 268
1 269
1 270
1 271
1 272
1 273
1 274
1 275
1 276
1 277
1 278
1 279
1 280
1 281
1 282
1 283
1 284
1 285
1 286
1 287
1 288
1 289
1 290
1 291
1 292
1 293
1 294
1 295
1 296
1 297
1 298
1 299
1 300
1 301
1 302
1 303
1 304
1 305
1 306
1 307
1 308
1 309
1 310
1 311
1 312
1 313
1 314
1 315
1 316
1 317
1 318
1 319
1 320
1 321
1 322
1 323
1 324
1 325
1 326
1 327
1 328
1 329
1 330
1 331
1 332
1 333
1 334
1 335
1 336
1 337
1 338
1 339
1 340
1 341
1 342

CELL_TYPES 343
1
1
1
1
1
1
1
1
1
1
1
1
1
1
1
1
1
1
1
1
1
1
1
1
1
1
1
1
1
1
1
1
1
1
1
1
1
1
1
1
1
1
1
1
1
1
1
1
1
1
1
1
1
1
1
1
1
1
1
1
1
1
1
1
1
1
1
1
1
1
1
1
1
1
1
1
1
1
1
1
1
1
1
1
1
1
1
1
1
1
1
1
1
1
1
1
1
1
1
1
1
1
1
1
1
1
1
1
1
1
1
1
1
1
1
1
1
1
1
1
1
1
1
1
1
1
1
1
1
1
1
1
1
1
1
1
1
1
1
1
1
1
1
1
1
1
1
1
1
1
1
1
1
1
1
1
1
1
1
1
1
1
1
1
1
1
1
1
1
1
1
1
1
1
1
1
1
1
1
1
1
1
1
1
1
1
1
1
1
1
1
1
1
1
1
1
1
1
1
1
1
1
1
1
1
1
1
1
1
1
1
1
1
1
1
1
1
1
1
1
1
1
1
1
1
1
1
1
1
1
1
1
1
1
1
1
1
1
1
1
1
1
1
1
1
1
1
1
1
1
1
1
1
1
1
1
1
1
1
1
1
1
1
1
1
1
1
1
1
1
1
1
1
1
1
1
1
1
1
1
1
1
1
1
1
1
1
1
1
1
1
1
1
1
1
1
1
1
1
1
1
1
1
1
1
1
1
1
1
1
1
1
1
1
1
1
1
1
1
1
1
1
1
1
1
1
1
1
1
1
1
1
1
1
1
1
1
1
1
1
1
1
1

POINT_DATA 343
FIELD FieldData 8

NodeID_(#) 1 343 int
0
1
2
3
4
5
6
7
8
9
10
11
12
13
14
15
16
17
18
19
20
21
22
23
24
25
26
27
28
29
30
31
32
33
34
35
36
37
38
39
40
41
42
43
44
45
46
47
48
49
50
51
52
53
54
55
56
57
58
59
60
61
62
63
64
65
66
67
68
69
70
71
72
73
74
75
76
77
78
79
80
81
82
83
84
85
86
87
88
89
90
91
92
93
94
95
96
97
98
99
100
101
102
103
104
105
106
107
108
109
110
111
112
113
114
115
116
117
118
119
120
121
122
123
124
125
126
127
128
129
130
131
132
133
134
135
136
137
138
139
140
141
142
143
144
145
146
147
148
149
150
151
152
153
154
155
156
157
158
159
160
161
162
163
164
165
166
167
168
169
170
171
172
173
174
175
176
177
178
179
180
181
182
183
184
185
186
187
188
189
190
191
192
193
194
195
196
197
198
199
200
201
202
203
204
205
206
207
208
209
210
211
212
213
214
215
216
217
218
219
220
221
222
223
224
225
226
227
228
229
230
231
232
233
234
235
236
237
238
239
240
241
242
243
244
245
246
247
248
249
250
251
252
253
254
255
256
257
258
259
260
261
262
263
264
265
266
267
268
269
270
271
272
273
274
275
276
277
278
279
280
281
282
283
284
285
286
287
288
289
290
291
292
293
294
295
296
297
298
299
300
301
302
303
304
305
306
307
308
309
310
311
312
313
314
315
316
317
318
319
320
321
322
323
324
325
326
327
328
329
330
331
332
333
334
335
336
337
338
339
340
341
342

Component_(#) 1 343 int
0
0
0
0
0
0
0
0
0
0
0
0
0
0
0
0
0
0
0
0
0
0
0
0
0
0
0
0
0
0
0
0
0
0
0
0
0
0
0
0
0
0
0
0
0
0
0
0
0
0
0
0
0
0
0
0
0
0
0
0
0
0
0
0
0
0
0
0
0
0
0
0
0
0
0
0
0
0
0
0
0
0
0
0
0
0
0
0
0
0
0
0
0
0
0
0
0
0
0
0
0
0
0
0
0
0
0
0
0
0
0
0
0
0
0
0
0
0
0
0
0
0
0
0
0
0
0
0
0
0
0
0
0
0
0
0
0
0
0
0
0
0
0
0
0
0
0
0
0
0
0
0
0
0
0
0
0
0
0
0
0
0
0
0
0
0
0
0
0
0
0
0
0
0
0
0
0
0
0
0
0
0
0
0
0
0
0
0
0
0
0
0
0
0
0
0
0
0
0
0
0
0
0
0
0
0
0
0
0
0
0
0
0
0
0
0
0
0
0
0
0
0
0
0
0
0
0
0
0
0
0
0
0
0
0
0
0
0
0
0
0
0
0
0
0
0
0
0
0
0
0
0
0
0
0
0
0
0
0
0
0
0
0
0
0
0
0
0
0
0
0
0
0
0
0
0
0
0
0
0
0
0
0
0
0
0
0
0
0
0
0
0
0
0
0
0
0
0
0
0
0
0
0
0
0
0
0
0
0
0
0
0
0
0
0
0
0
0
0
0
0
0
0
0
0
0
0
0
0
0
0
0
0
0
0
0
0
0
0
0
0
0
0

NodalMass_(kg) 1 343 double
3.15563e-06
1.41304e-05
2.20912e-06
1.71484e-05
8.42e-06
9.09306e-06
9.93033e-06
7.52198e-06
6.81096e-06
5.58223e-06
3.10888e-06
1.07575e-05
4.87011e-06
1.64955e-05
3.0246e-06
8.05984e-06
6.703e-06
1.0877e-05
4.18978e-06
8.16106e-06
6.14143e-06
1.17902e-05
2.23114e-06
4.25176e-06
1.09915e-05
7.41467e-06
4.21871e-06
3.92484e-06
3.08766e-06
1.31268e-05
7.72627e-06
1.65404e-05
1.19037e-05
7.29666e-06
3.81683e-06
1.11001e-05
3.81317e-06
1.39137e-05
6.37414e-06
8.00975e-06
7.6712e-06
1.18847e-05
1.6399e-05
2.78633e-06
8.93599e-06
2.58087e-06
7.57362e-06
4.23241e-06
1.31286e-05
3.80168e-06
2.7746e-06
7.16776e-06
1.21307e-05
5.11765e-06
8.19728e-06
4.58094e-06
2.79503e-06
3.26126e-06
4.12443e-06
2.11915e-06
3.35177e-06
3.61669e-06
1.56838e-05
7.33679e-06
8.24695e-06
5.00369e-06
2.82625e-06
7.20276e-06
3.26815e-06
4.18751e-06
2.02785e-06
2.42152e-06
3.11835e-06
5.97459e-06
5.87101e-06
4.09374e-06
5.45463e-06
2.28825e-06
4.49759e-06
4.38192e-06
4.50892e-06
4.39234e-06
4.27273e-06
5.32031e-06
1.53201e-06
2.38869e-06
2.02885e-06
4.38798e-06
3.17972e-06
3.14298e-06
4.61567e-06
5.87645e-06
8.18088e-06
2.48341e-06
1.53815e-05
3.49683e-06
7.35227e-06
2.01314e-06
2.0408e-06
7.98183e-06
4.41293e-06
7.1389e-06
1.20123e-06
5.03343e-06
1.61257e-06
4.12601e-06
8.73748e-06
4.37849e-06
7.97173e-06
2.13557e-06
3.38137e-06
9.48623e-06
7.40262e-06
1.80226e-06
2.10222e-06
7.98889e-06
1.87983e-06
7.44814e-06
4.19782e-06
2.37156e-06
4.31705e-06
6.06441e-06
4.30905e-06
2.16843e-06
1.8986e-06
1.81294e-06
3.89762e-06
2.44299e-06
1.65628e-06
8.01374e-06
1.64513e-06
2.3931e-06
3.01363e-06
2.99431e-06
1.36541e-06
1.87293e-06
2.09622e-06
1.94762e-06
1.87618e-06
6.37913e-06
4.58628e-06
2.02767e-06
1.61999e-06
2.41284e-06
3.8865e-06
4.44973e-06
2.29839e-06
1.17349e-05
3.11811e-06
1.354e-06
3.45063e-06
1.81846e-06
2.9382e-06
1.37381e-06
2.41464e-06
2.10451e-06
2.63927e-06
2.14166e-06
1.7943e-06
3.19976e-06
1.36989e-06
2.43489e-06
2.08158e-06
1.3601e-06
2.17203e-06
1.89924e-06
3.16996e-06
2.6119e-06
2.37677e-06
1.60225e-06
1.90684e-06
5.49206e-06
1.87878e-06
3.14313e-06
2.97301e-06
1.18454e-06
1.89263e-06
2.04166e-06
2.73572e-06
2.42405e-06
3.23083e-06
3.19752e-06
3.2142e-06
1.94492e-06
1.61196e-06
1.86876e-06
3.22435e-06
2.1114e-06
2.96917e-06
6.15288e-06
2.3097e-06
2.39729e-06
2.38029e-06
2.64508e-06
1.66557e-06
1.82377e-06
2.06583e-06
5.73271e-06
2.08467e-06
2.18324e-06
2.43522e-06
3.1188e-06
3.17316e-06
2.05447e-06
1.9592e-06
3.05718e-06
6.44327e-06
2.08796e-06
2.72615e-06
2.15709e-06
1.86812e-06
2.0028e-06
2.10999e-06
2.88994e-06
2.3222e-06
2.3979e-06
1.97629e-06
6.4127e-06
2.16225e-06
3.29198e-06
2.10223e-06
2.66566e-06
1.94415e-06
2.91865e-06
2.58116e-06
2.11703e-06
2.09534e-06
1.91719e-06
7.06046e-06
2.25203e-06
2.06378e-06
6.28159e-06
2.12147e-06
2.90924e-06
2.12921e-06
6.4487e-06
1.41701e-06
2.0682e-06
6.58062e-06
2.52584e-06
2.39732e-06
7.42191e-07
2.22368e-06
7.06751e-07
7.00657e-07
8.93749e-07
2.53536e-06
2.26535e-06
1.33607e-06
7.84725e-07
2.32303e-06
6.06694e-07
6.68276e-07
6.84307e-07
2.51242e-06
2.31629e-06
7.8367e-07
6.80839e-07
6.22692e-06
6.7471e-07
6.65305e-07
7.01158e-07
1.8232e-06
1.90695e-06
6.86722e-07
7.04792e-07
1.86445e-06
2.28572e-06
6.8045e-07
7.16005e-07
1.82373e-06
6.01079e-07
2.02791e-06
7.4579e-07
5.74423e-07
1.80052e-06
1.454e-06
2.2702e-06
1.80636e-06
2.15356e-06
1.79089e-06
1.79456e-06
6.8231e-07
2.24737e-06
1.45239e-06
1.79556e-06
6.97875e-07
6.24265e-07
6.62717e-07
1.44627e-06
1.40138e-06
2.15258e-06
1.82851e-06
1.3994e-06
1.43932e-06
2.19226e-06
6.97732e-07
1.77726e-06
1.79162e-06
6.54258e-07
7.3397e-07
2.34895e-06
7.10392e-07
6.56982e-07
6.26314e-07
2.18926e-06
6.12493e-07
6.03901e-07
5.92831e-07
5.12031e-07
5.11667e-07
4.9467e-07
4.97016e-07
4.96269e-07
5.33079e-07
4.94191e-07
4.97855e-07
4.86862e-07
4.90626e-07
4.94649e-07
4.94954e-07
4.91922e-07
4.89615e-07
4.96354e-07
4.95189e-07
4.82188e-07
1.10854e-06
5.3299e-07
5.44763e-07
5.36655e-07
5.15417e-07
5.01772e-07
5.53774e-07
5.53774e-07
5.53774e-07
5.53774e-07
5.53774e-07
5.53774e-07
5.50785e-07
5.50785e-07
7.45291e-07
7.11668e-07
4.9897e-07

NodalForce_(N) 3 343 double
2.39271e-06 -3.93922e-07 -3.84085e-09
2.34082e-05 -5.14008e-06 1.0138e-06
-0.000350646 -0.000205806 3.6278e-05
4.17461e-06 -6.96943e-06 1.74747e-06
-8.50075e-06 -3.41169e-05 3.76366e-06
8.63647e-06 -3.0158e-05 2.93798e-06
4.18512e-05 -7.5108e-05 1.03841e-05
2.93764e-05 -3.65802e-05 5.98144e-06
2.86957e-06 -4.45303e-05 4.58466e-06
1.652e-05 -1.56859e-05 2.19718e-06
-8.65461e-06 -9.65337e-06 9.84933e-07
-2.154e-05 -4.667e-05 4.09908e-06
-2.02692e-05 -1.69724e-05 1.21182e-06
-2.5395e-06 -4.63611e-06 1.97742e-06
-3.11386e-06 -7.75012e-06 9.42115e-07
5.29743e-05 -4.61521e-05 4.70176e-06
4.05808e-05 -3.26387e-05 4.3926e-06
6.81692e-07 -5.49338e-06 3.97689e-07
-0.000154924 -0.000253862 0.000284954
4.73452e-06 -1.06631e-06 -3.83131e-07
7.71585e-06 -4.14136e-05 6.69627e-06
-1.11282e-05 -0.000105895 1.28803e-05
-6.13146e-05 4.94451e-05 7.23808e-05
-2.97548e-06 -1.54772e-05 2.98653e-06
-6.8817e-06 -4.67865e-05 1.06932e-05
1.23003e-05 -1.46025e-05 4.50016e-06
-3.13043e-06 -8.32214e-07 2.35379e-07
-1.26345e-05 -1.52183e-05 3.59109e-06
1.05282e-05 -1.9749e-06 5.24284e-07
3.31645e-05 -3.05376e-06 7.51066e-07
3.44754e-05 -1.18059e-05 4.10592e-06
0.000172338 -0.000127294 1.04286e-05
4.37651e-05 -9.71271e-05 9.42428e-06
5.34543e-05 -6.47161e-05 8.15069e-06
5.81022e-05 -4.76414e-05 6.30416e-06
0.000113582 -7.87518e-05 1.0602e-05
6.24997e-05 -3.70403e-05 4.05915e-06
0.000170939 -0.00011361 1.81237e-05
9.1968e-07 -9.49173e-06 7.43206e-07
3.75084e-06 -1.80611e-05 2.24734e-06
-1.39022e-05 -1.96965e-05 1.74987e-06
7.34116e-05 -3.34017e-05 2.18899e-06
3.35609e-05 -3.7807e-06 -1.55908e-06
1.43694e-05 -2.66424e-06 -5.51374e-07
5.1092e-05 -1.6146e-05 4.45232e-07
-4.04438e-05 -0.0001315 -5.10869e-05
1.07169e-05 -1.65353e-06 1.21571e-07
0.000100403 -0.000235793 0.000188057
1.87011e-05 -4.85371e-06 -1.52991e-07
2.34252e-06 -5.21463e-07 -1.46825e-07
2.06865e-05 -1.66378e-05 7.72076e-07
3.38039e-05 -3.07393e-05 2.60932e-06
2.74431e-05 -2.52442e-06 -2.387e-07
1.48413e-05 -3.31456e-06 -1.52052e-08
9.84738e-06 -1.31089e-06 -4.25918e-08
3.31754e-05 -5.66538e-05 5.54934e-06
-0.00022241 -1.74424e-05 2.10129e-05
5.26162e-06 -8.10992e-07 1.79027e-08
-0.000164444 -0.000207146 -7.88798e-05
2.2531e-05 -2.58968e-05 2.896e-06
1.17162e-06 -2.86135e-06 4.8374e-07
-4.02479e-06 -5.17998e-05 7.03134e-06
-7.30194e-06 -0.000156316 2.81723e-05
1.77961e-05 -7.10802e-05 1.04443e-05
-1.27438e-05 -2.03099e-05 2.39872e-06
1.1622e-05 -1.9997e-07 -4.49353e-07
-8.49326e-06 -4.58158e-06 5.02979e-07
1.09381e-05 -3.36188e-05 3.15363e-06
3.84725e-05 -4.04066e-05 5.82294e-06
-2.15255e-05 -4.91482e-05 6.95913e-06
2.82161e-06 -3.19053e-06 7.85097e-07
-3.03526e-06 -2.65163e-06 4.21873e-07
-8.53805e-06 -5.94379e-06 6.61323e-07
1.48935e-05 -1.46084e-05 1.43959e-06
4.21106e-06 -6.23008e-06 9.98319e-07
-0.000315198 -0.000185845 8.43138e-05
6.7688e-06 -1.64447e-05 2.85309e-06
1.59624e-06 -2.95311e-07 -4.35549e-09
3.49812e-05 -1.76744e-05 -7.70935e-08
4.8218e-05 -1.99651e-05 5.344e-07
3.32353e-05 -1.04621e-05 -1.74919e-07
2.33776e-05 -8.58846e-06 -8.34836e-07
5.93924e-05 -5.22764e-05 6.29197e-06
1.74451e-05 -4.2272e-06 9.16395e-07
-0.000123155 -0.000140307 -0.00010517
4.24055e-06 -6.08187e-08 -7.38151e-08
-0.0001093 -4.04444e-05 -9.02609e-05
0.000461875 -0.000155859 2.91685e-05
-0.000106245 -0.000256908 -3.9894e-05
6.80864e-06 -2.19199e-06 5.74948e-07
4.44643e-06 -2.63367e-07 -2.14815e-07
2.90555e-05 -1.71059e-05 1.72496e-06
2.42563e-05 -7.67829e-06 7.81639e-08
-3.71646e-06 -1.70108e-05 1.77003e-06
-3.59413e-05 -0.000144361 1.48794e-05
-1.69145e-05 -3.00284e-05 5.02904e-06
-1.38605e-05 -4.41582e-05 6.95036e-06
4.62435e-06 -2.73008e-05 4.12579e-06
-0.000296082 -0.000301985 -3.69264e-05
7.22891e-05 -3.98229e-05 3.15363e-06
-5.89868e-06 -2.76802e-05 5.80165e-06
1.35073e-05 -3.72631e-05 8.38992e-06
6.95963e-06 -1.67058e-06 1.6313e-08
7.94492e-05 -4.79135e-05 4.5789e-06
-2.35679e-07 -2.40284e-06 4.33527e-07
-1.77376e-05 -2.81824e-05 6.41086e-06
8.6587e-05 -4.42182e-05 6.59983e-06
-2.45405e-05 -5.043e-05 6.11262e-06
-2.01159e-05 -4.8463e-05 4.35594e-06
1.17325e-07 -3.50781e-08 -3.86344e-08
3.47592e-05 -2.21544e-05 4.16064e-06
7.42342e-05 -3.1744e-05 5.96506e-06
4.79996e-05 -3.03874e-05 7.2326e-06
0.000134711 -0.000139945 8.83261e-05
-1.45271e-06 -3.05378e-05 4.74906e-06
4.65694e-06 -1.70275e-06 2.29223e-07
2.81463e-05 -2.36709e-05 3.43285e-06
6.03136e-05 -6.66991e-05 1.01783e-05
5.46833e-05 -2.23269e-05 2.58305e-06
-1.40228e-05 -1.9578e-05 1.90924e-06
-7.12792e-06 -6.09779e-05 7.35643e-06
1.10288e-05 -5.8361e-05 6.90995e-06
-3.10405e-06 -1.13865e-06 1.04679e-07
-0.000204263 -0.000109682 -0.0001059
-1.20663e-06 -4.55057e-07 -1.42494e-08
1.87975e-05 -2.2317e-05 2.80593e-06
4.1748e-05 -1.84292e-05 3.11118e-06
-0.000132611 -5.27996e-05 0.000269685
2.01289e-06 -2.94071e-08 -1.08573e-07
5.17724e-05 -1.77865e-05 1.74541e-06
2.51563e-05 -1.55541e-05 1.05504e-06
3.27889e-05 -2.88184e-05 2.70786e-06
-9.94686e-06 -1.58593e-05 1.66863e-06
4.65509e-06 -2.0005e-05 1.92397e-06
-0.000554153 -0.000294269 3.84815e-05
3.66641e-06 -1.17397e-07 -5.59763e-08
-3.64519e-05 -0.000247742 -7.9827e-05
-9.09088e-06 -2.36349e-05 4.13337e-06
2.17099e-05 -2.33864e-05 3.60033e-06
5.83457e-05 -5.85657e-05 9.70517e-06
2.62157e-05 -4.08608e-05 3.20267e-06
-7.75439e-06 -1.72332e-05 1.82911e-06
-9.93033e-06 -1.87237e-05 1.94505e-06
-5.70229e-06 -3.38505e-05 3.91157e-06
-9.93868e-05 -0.000181021 -1.23601e-06
-2.58983e-05 -2.76704e-05 2.73307e-06
-9.15201e-06 -8.90729e-06 1.33245e-06
6.15688e-05 -9.85704e-05 1.75507e-05
1.77276e-05 -4.04684e-05 6.37151e-06
1.0916e-05 -3.42451e-06 -8.97055e-08
2.0157e-05 -3.7436e-06 -1.54767e-08
-1.11635e-06 -4.20318e-07 1.5765e-07
0.000103557 -1.11669e-05 -6.55069e-05
1.04611e-05 -1.71278e-05 1.97722e-06
3.45094e-05 -1.66384e-05 1.85909e-06
2.21423e-05 -1.43602e-05 4.87145e-07
2.28504e-05 -9.49164e-05 -9.93912e-07
-0.000481701 -6.16451e-05 0.00028389
8.15196e-06 -9.94109e-06 8.124e-07
4.70071e-06 -4.25674e-05 4.78491e-06
-5.91544e-06 -5.02249e-06 4.16258e-07
1.05841e-05 -1.96697e-06 -2.99974e-07
-2.31856e-06 -1.97863e-05 3.97219e-06
6.96827e-06 -4.9957e-06 1.64308e-07
2.37856e-05 -2.61703e-05 2.13697e-06
1.81256e-05 -1.67066e-05 9.93064e-07
5.6355e-06 -2.31059e-05 5.05872e-06
9.70708e-06 -2.51996e-06 1.02276e-06
3.20922e-05 -1.83961e-05 2.86565e-06
2.50917e-05 -1.30795e-05 1.54919e-06
1.53085e-05 -7.93232e-06 1.72908e-06
4.2116e-05 -3.28301e-05 5.89122e-06
-8.2706e-06 -1.89378e-05 3.84551e-06
4.57411e-06 -1.84172e-06 1.60867e-07
7.56932e-06 -4.94011e-06 2.09831e-07
9.75982e-07 -2.2564e-06 2.42317e-07
2.54033e-05 -1.39028e-05 5.71886e-07
-5.10854e-06 -2.8348e-06 2.63745e-07
2.3511e-05 -3.4423e-05 5.29142e-06
-0.000224607 -0.000391289 -4.91811e-05
1.02054e-05 -4.13402e-05 4.46368e-06
1.53236e-05 -3.24254e-05 6.30796e-06
8.12559e-06 -4.44724e-05 7.42864e-06
-0.000208208 -0.000125107 -0.00015054
4.95875e-06 -1.10175e-06 -2.27552e-07
-1.18302e-05 -1.74463e-05 1.72025e-06
-4.18717e-06 -3.18277e-05 3.16568e-06
4.87538e-06 -2.12887e-05 1.96359e-06
3.19749e-05 -1.32794e-05 5.66571e-07
4.15791e-05 -1.95873e-05 2.12562e-06
2.60007e-05 -1.05872e-05 8.69743e-07
3.12503e-05 -1.55177e-05 6.84244e-07
6.27129e-06 -1.08142e-06 -2.24339e-07
8.17563e-06 -5.32225e-06 1.85638e-06
-4.44858e-06 -3.19633e-06 4.43932e-07
-5.92059e-06 -3.90989e-06 5.45771e-07
1.21964e-05 -2.72868e-05 4.64363e-06
3.40969e-05 -1.02701e-05 2.07505e-06
1.09486e-05 -2.68986e-05 3.927e-06
1.52252e-05 -1.25306e-05 2.82676e-06
4.14677e-05 -2.44193e-05 2.83897e-06
-0.000168963 3.72665e-05 8.14699e-05
6.37565e-06 -2.77975e-07 -2.51447e-07
-7.65957e-05 -0.000112644 -0.000161412
1.58559e-05 -5.32191e-06 8.99165e-07
2.82783e-05 -8.75443e-06 8.60957e-07
2.13893e-05 -1.80413e-05 4.45501e-06
1.0328e-05 -1.50726e-05 3.25041e-06
-1.26567e-05 -1.66522e-05 2.36673e-06
-1.08336e-05 -1.29612e-05 1.18531e-06
3.98451e-06 -1.73534e-07 -1.35105e-07
2.99678e-06 -2.21514e-05 4.3599e-06
9.86818e-06 -2.69535e-05 2.96883e-06
4.03801e-05 -2.00027e-05 1.79821e-06
-4.93922e-07 -9.91486e-06 1.03304e-06
-5.12627e-06 -3.6735e-06 8.22051e-07
-7.23058e-07 -2.66753e-05 3.07982e-06
9.20474e-06 -3.08552e-06 4.69596e-07
7.89457e-06 -1.00062e-05 2.61787e-06
2.81539e-05 -3.0152e-05 5.64381e-06
2.14581e-05 -8.41136e-06 3.23063e-07
1.24711e-05 -3.43302e-05 4.29788e-06
2.21178e-05 -8.48676e-06 6.95896e-07
-1.5718e-05 -2.52705e-05 3.17733e-06
1.42937e-05 -2.65919e-06 -1.12465e-07
-6.82307e-05 -5.86414e-05 -2.32539e-05
9.57421e-06 -4.15901e-06 -8.36705e-08
-9.87522e-06 -1.05611e-05 8.07379e-07
1.69156e-05 -8.64673e-06 1.44455e-06
1.92609e-05 -6.00255e-06 1.90789e-07
-8.87937e-06 -7.92935e-06 9.56087e-07
1.3847e-05 -7.66522e-06 8.26044e-07
-0.000315235 -0.000556387 -7.5332e-06
-1.74481e-05 3.26946e-06 -0.000198447
1.14845e-05 -5.83441e-06 1.90844e-06
3.34214e-05 -1.71642e-05 3.4394e-06
-6.09586e-06 -8.25696e-06 1.529e-06
1.67067e-05 -2.58849e-05 3.55426e-06
2.23291e-05 -7.72367e-06 8.72591e-07
6.29139e-06 -9.16273e-06 7.72209e-07
2.21713e-05 -3.04822e-05 4.898e-06
-2.66503e-05 -8.86331e-05 -5.82838e-06
2.76961e-05 -2.13926e-05 3.50317e-06
-1.56148e-06 -2.23055e-06 6.36465e-07
0.000107219 -6.10166e-05 1.89657e-06
7.67794e-06 -3.01825e-06 -1.13149e-08
-0.000490933 -0.000634331 8.63638e-05
2.98246e-05 -2.83978e-05 4.39828e-06
1.56992e-05 -1.69811e-05 2.80082e-06
0.000101767 -0.000125165 -0.000146097
2.55853e-06 -9.08948e-06 2.23793e-06
-6.22957e-05 -4.14166e-05 -3.12152e-05
-2.7635e-06 -1.01638e-05 1.50875e-06
1.16017e-05 -8.58918e-06 7.75751e-07
1.56396e-05 -5.09887e-06 1.38576e-06
3.99414e-06 -3.11197e-05 4.0617e-06
-2.51259e-06 -4.45594e-06 1.10571e-06
0.000152102 0.000139768 6.83632e-05
5.19314e-06 -9.74346e-06 1.06599e-06
-3.4872e-06 -3.27944e-06 2.24528e-07
-3.45205e-06 -9.84071e-06 1.14844e-06
0.000152557 0.000198574 6.82329e-05
3.22024e-05 -1.93338e-05 2.29877e-06
3.06753e-05 -2.45459e-05 3.3796e-06
-3.2192e-06 -1.02778e-05 1.33485e-06
5.67162e-06 -9.22944e-06 1.62444e-06
2.96778e-07 -6.45521e-07 -1.79971e-08
-0.000452659 -0.00035685 0.00016892
0.000131647 -0.000234623 -0.00017223
0.000207424 -0.00011006 -0.000214635
2.80338e-05 -1.893e-05 2.62049e-06
1.08583e-05 -7.79849e-06 9.33118e-07
1.80158e-05 -5.60542e-06 2.13417e-07
6.37889e-06 -8.95956e-06 8.14628e-07
-2.89768e-05 -0.000102894 -2.66609e-06
-0.000434329 -0.000244146 -9.52152e-05
-9.25719e-07 -4.95267e-07 -1.25374e-07
-4.23179e-07 -3.10222e-07 7.36037e-08
2.73232e-05 -1.76286e-05 1.00388e-06
2.83788e-06 -2.20406e-07 -1.74952e-07
-0.000135705 -9.90393e-05 5.76648e-05
2.45889e-05 -2.14779e-05 1.57789e-06
1.00178e-05 -4.5973e-06 5.00706e-07
-1.61121e-06 -3.35006e-05 5.85907e-06