# vtk DataFile Version 4.2
vtk output
ASCII
DATASET UNSTRUCTURED_GRID

POINTS 343 double
0.00112259 0.0041949 8.94102e-08
0.00217126 0.00498246 0.00217537
0 0.00419538 0.00112517
0.00193008 0.00195441 0.00194217
0.00516927 0.00240641 0.00503232
0.00517212 0.00382962 0.0063976
0.00762284 0.00477451 0.00499906
0.0062249 0.00484979 0.0036919
0.00683605 0.00328784 0.00691405
0.00499125 0.00499215 0.00499988
0.0041799 0.00111779 0.00999913
0.00528058 0.00207977 0.00790411
0.00418972 -7.7888e-06 0.00831719
0.00201229 0.00200244 0.00803327
0.00428585 0.00253256 0.00999918
0.00695696 0.00644603 0.00694697
0.00641417 0.00618177 0.00518314
0.00226055 0.00218456 0.00514613
0 0.00143586 0.00417514
0.00159462 0.00346613 0.00403704
0.00683721 0.00319316 0.00316164
0.00774518 0.00221202 0.00506406
0 0.00270918 0.00154168
0.00415823 0.00142816 2.84864e-07
0.00500774 0.00218736 0.00219814
0.00396265 0.00352645 0.00160323
0.00134529 -6.17256e-07 0.00406003
0.00418308 -8.14203e-06 0.00168839
0.00262664 0.00695155 1.84993e-07
0.00193856 0.0080527 0.00194493
0.00408811 0.00624784 0.00164522
0.00800364 0.00798489 0.00799725
0.00796491 0.00481453 0.00802228
0.00838876 0.0060784 0.00594796
0.0100002 0.00882381 0.00419192
0.00757773 0.00763467 0.00496373
0.00856832 0.0099787 0.00416651
0.00797763 0.00797 0.00201606
0.00353596 0.00303634 0.00695954
0.0044373 0.0036616 0.00832403
0.00389212 0.00160025 0.00596907
0.00500601 0.00766785 0.00767668
0.00198983 0.00800783 0.00798964
0.00282801 0.00999716 0.00712716
0.00391718 0.00839924 0.00595784
0 0.00695361 0.00262895
0.00164664 0.00623922 0.0040879
0 0.0040177 0.00850214
0.00231514 0.00498565 0.00766151
0.00143332 0.00417445 0.00999995
0.00717535 0.00711718 0.00999776
0.00611844 0.0059701 0.00841731
0.00205213 0.00794138 0.00474185
0.003044 0.00694278 0.00646772
0.00158703 0.00607832 0.00592602
0.0099894 0.00578199 0.00831451
0 0.00718191 0.00711644
0.00158474 0.00577341 5.64397e-08
0 0.00577432 0.00158701
0.00999454 0.00715571 0.00711397
0.00286739 0.00334917 0.00999969
0.00996983 0.00140722 0.00417406
0.00803615 0.00194168 0.00197906
0.00838938 0.00350081 0.00399824
0.00372562 0.00164775 0.00412838
0.00150961 0.00999967 0.00581502
0.0028093 -3.74568e-06 0.00712773
0.00610975 0.00417079 0.00837579
0.00999371 0.00724775 0.00419424
0.00852795 -2.34954e-05 0.00416741
0.00334179 0.00286949 2.00164e-07
0.00270006 0.00153871 0.00999972
0.00281817 -4.13522e-06 0.00283207
0.00479804 0.00519371 0.00755419
0.00315823 0.00314613 0.00316741
0 0.00849157 0.00581511
0.00486487 0.00366911 0.00378626
0.0015371 0.00270864 4.3848e-08
0.00580034 0.00831533 0.00999825
0.00598582 0.00998864 0.00850481
0.00421478 0.00999374 0.00831726
0.00401831 0.00849801 0.00999889
0.00999936 0.00846514 0.00581296
0.00314778 0.00683341 0.00315092
0 0.00748929 0.00137438
0.00137359 0.00748898 2.09993e-08
0 0.00287343 0.00335182
0 0.00580816 0.00831736
0 0.00429792 0.00253898
0.00253375 0.00429582 1.9568e-07
0.00143397 0.00581915 0.00999995
0.0051758 0.00646815 0.00640004
0.00360359 0.0065092 0.00823379
0.00693216 0.00261213 0.00999808
0.00799918 0.00193858 0.00803394
0.00694149 -1.74601e-05 0.00308191
0.00600054 0.00165175 0.00361278
0.00997531 0.00284569 0.00335096
0 0.00140616 0.00256446
0.0063741 0.00821599 0.00642022
0.00579647 0.00142262 5.1721e-07
0.00602217 0.00354033 0.00160332
0.00315772 0.00999631 0.00582514
0.00856361 0.00997889 0.0058316
0.00255397 0.00140287 2.12233e-07
0.00594963 -1.38735e-05 0.00149469
0.00628117 0.00827602 0.00361694
0.00852335 -2.33099e-05 0.00583219
0.0061864 0.00165984 0.00636468
0.0014023 0.00256405 0.01
0.00711194 0.00716689 -6.66118e-08
0.00516585 0.00768181 0.00216886
0.00593684 0.00608323 0.00160188
0 0.00686719 0.00578184
0.00996905 0.00137731 0.00256392
0.0017723 0.00360985 0.00640787
0.00999814 0.00846014 0.00262256
0.00840391 0.00616934 0.00413191
0.00598407 0.00998795 0.00149363
0.00694145 -1.7171e-05 0.00692554
0.00997052 0.00140704 0.00581797
0.00837941 0.00355276 0.00605961
0.0015018 -7.90578e-07 0.0058152
0 0.0013659 0.00748679
0.00136365 -6.66611e-07 0.00752891
0.00999267 0.00684092 0.00577978
0.00581609 0.0084806 6.08201e-09
0 0.0075208 0.00859127
0.00136527 0.00748642 0.00999988
0.0042316 0.0082 0.0036282
0.00859712 0.00997876 0.00751002
0.0100007 0.00860394 0.00752364
0.00575488 0.001575 0.0099985
0.00724564 0.00417266 0.00999791
0 0.0057735 0.00666667
0.00137053 0.00999961 0.00752892
0 0.00863025 0.00752641
0.00855395 -2.39362e-05 0.00250728
0.00999179 0.00692701 0.00262791
0.00845097 0.00632181 0.0021624
0.00850062 0.00580387 0.00999734
0.00746538 0.00135592 0.00999777
0.00855674 -2.35409e-05 0.00751018
0.00997088 0.00133751 0.00748438
0 0.00143551 0.00581971
0.00595179 -1.34057e-05 0.00850472
0.00419291 -8.19413e-06 0.00340005
0.00792035 0.0046892 0.00203421
0.00998079 0.00427082 0.00253819
0.00423238 0.00999351 0.00666609
0.00283717 0.0099972 0.00283193
0.00130696 -6.7384e-07 0.00241834
0 0.00727418 0.00419576
0.0099885 0.00574725 0.00666435
0.00697864 0.00998456 0.00308101
0.00750936 0.00862051 0.00999761
0 0.00574334 0.00336387
0 0.0043297 0.00416652
0.00686242 0.00577076 0.00999806
0.00997734 0.00299484 0.00691304
0.00420573 -7.98639e-06 0.00666644
0.00248089 0.00999758 0.00861135
0.00745922 0.00134682 3.82895e-07
0.00577087 0.00665711 0.0099983
0.00999659 0.00749471 0.00858821
0.0086063 0.00753327 0.00999722
0.00689497 0.0030066 4.5149e-07
0.00335919 0.00574031 3.06399e-07
0.00752684 0.00861316 -2.63811e-07
0.00752038 0.00998223 0.00138683
0.00577747 0.00685705 8.3408e-08
0.00696858 0.00635671 0.00303301
0.00748201 -1.99198e-05 0.00138795
0.00288053 0.00499704 0.00999959
0.0043257 0.0058284 0.00999895
0.00432146 0.00416126 0.00999903
0.00752285 0.00998283 0.00861397
0.00246474 -3.16738e-06 0.00861154
0.00998697 0.00571677 0.00336277
0 0.00302218 0.00691532
0.00998203 0.00399103 0.00849931
0.00848285 0.00399629 1.16204e-07
0.00997397 0.00268107 0.00154133
0 0.00244495 0.00857025
0.00244629 0.00856809 0.00999948
0.00748463 -1.94135e-05 0.00861384
0.0084659 0.00260254 0.00999736
0.00883569 0.00417195 0.0099972
0.00567636 0.0099893 0.00583256
0.00518544 0.00757545 0.00503196
0.00564825 0.00998924 0.00421472
0.0069785 0.00998491 0.00692518
0.00302092 0.00691324 0.00999936
0.00415736 0.0043244 4.26539e-07
0.0028212 -4.27661e-06 0.00440479
0.0031374 -4.77567e-06 0.00582556
0.00997987 0.004168 0.00112477
0.00363846 0.008333 0.00158833
0.00998157 0.00430276 0.00416527
0.0066572 0.00576019 2.55781e-07
0.0085945 0.00997835 0.00250615
0 0.00848692 0.00262374
0.0013523 0.00999964 0.00405987
0 0.00885053 0.00419359
0.00419554 0.00884404 1.53601e-07
0.00420942 0.0099933 0.00168768
0.00499005 0.0047841 0.00237893
0.00720441 0.00450576 3.12572e-07
0.00561582 -1.27337e-05 0.00421554
0.005644 -1.26673e-05 0.00583301
0.00131381 0.00999966 0.00241806
0.00854452 0.00242243 2.19074e-07
0.00998359 0.00449516 0.00721713
0.00712127 0.00998425 0.00499919
0.00572997 0.00335369 0.00999854
0.00244547 -3.34394e-06 0.00135678
0.00997563 0.00241726 0.00856749
0.00239185 0.00478972 0.00499994
0.00581999 0.00431937 4.72642e-07
0.00830567 0.00578813 -1.02229e-07
0.00548551 0.00999008 0.00721954
0.00998221 0.00430336 0.00583143
0.00540817 0.00998987 0.00277525
0.00708375 -1.77816e-05 0.00499992
0.00283964 0.00999721 0.00440434
0 0.00452174 0.00721958
0.00452049 0.00721427 0.0099988
0.00545375 -1.18416e-05 0.00721951
0.00359813 0.00507032 0.00359655
0.00425706 0.00999344 0.00500786
0.0042297 -8.17072e-06 0.00500853
0.00366635 0.0052133 0.00617445
0 0.005744 0.00499998
0 0.00433013 0.00583333
0.0049929 0.00573682 4.0207e-07
0.00498064 0.00633203 0.0035537
0.0053763 -1.20323e-05 0.00277619
0.00998766 0.00571762 0.00499829
0.00368811 0.00640424 0.00484383
0.00573601 0.0049908 0.00999846
0.00998647 0.00574753 0.00158637
0 0.00666667 0
0.00858621 0.00749983 -4.13095e-07
0.00331611 -6.33065e-06 8.83593e-07
0 0.01 0.00666667
0.00500705 0.00999123 0.0099988
0 0.00288419 0.00499914
0.00999356 0.00746256 0.00137363
0.00998973 0.00663984 -6.27498e-07
0 0.005 0.01
0.00498323 0.0028754 4.07137e-07
0 0.005 0
0.00996362 -2.96081e-05 0.0033327
0.010006 0.00997292 0.00666408
0.00419361 0.00726877 2.29241e-07
0.00997594 0.00285668 0.00499766
0.00497558 -1.13356e-05 9.32931e-07
0 0 0.00666667
0.00379041 0.0036125 0.00522626
0.00497819 -1.08041e-05 0.00999841
0.00996497 -2.93282e-05 0.00666459
0 0 0.005
0.00878517 0.00997738 0.00121932
0.00999888 0.0087528 0.00121919
0.00996426 -2.94179e-05 0.00499867
0.00998286 0.00497272 -3.87732e-07
0.00121555 0.00121923 -6.22917e-09
0 0.00122008 0.00122008
0 0.00333333 0.01
0 0.00666667 0.01
0.00877983 0.00875769 -6.25097e-07
0.0100047 0.00997256 0.00333174
0.00422008 0.00999339 0.00339942
0.00999362 0.00664068 0.00999675
0 0.00333333 0
0 0.00122008 0.00877992
0.00121488 -8.49823e-07 0.00877968
0.0012161 0.0012195 0.0100001
0.00878798 0.00997795 0.00877741
0.00122012 0.00877944 0.00999988
0 0.00877992 0.00877992
0.0100019 0.00875353 0.00877683
0.00667248 0.00998523 -4.80207e-07
0.00996773 0.0011909 0.00121996
0.00122114 0.00999944 0.0087801
0.00878367 0.00875848 0.00999719
0.00998671 0.00497367 0.00999679
0 0 0.00333333
0.00663606 -1.68872e-05 9.19315e-07
0.00874444 -2.49496e-05 0.00122053
0.00120592 -8.84285e-07 0.00121211
0 0.00877992 0.00122008
0.0012201 0.00877939 1.0342e-07
0.00121246 0.00999949 0.00121142
0.00997074 0.00119151 0.00877696
0.00875278 0.00119637 0.00999714
0.0066395 -1.63699e-05 0.00999761
0.0087489 0.00119573 3.08907e-07
0.00874745 -2.44165e-05 0.00877719
0.00997606 0.00330544 -1.9173e-07
0.00333853 0.00999536 0.0099996
0.00246217 0.00999777 0.00135635
0.00667544 0.00998594 0.00999823
0.00997985 0.00330638 0.00999678
0 0.01 0.005
0.00262433 0.00848454 1.929e-07
0.0100053 0.00997275 0.00499798
0 0.01 0.00333333
0 0.00166667 0
0.00996297 -2.98694e-05 0.00166661
0 0.00166667 0.01
0 0.00833333 0
0.00999669 0.00830621 -8.62183e-07
0.00996566 -2.93961e-05 0.00833039
0.0100041 0.00997234 0.00166554
0.0100067 0.00997296 0.00833036
0.00166917 0.00999846 0.0099999
0 0.01 0.00833333
0.00833861 0.00997894 -7.05376e-07
0.00829847 -2.34755e-05 5.95396e-07
0.0083023 -2.2922e-05 0.00999706
0.00834207 0.00997953 0.00999745
0 0 0.00833333
0.0100006 0.00830708 0.0099967
0.00165777 -2.19827e-06 2.73896e-07
0 0 0.00166667
0.00333798 0.00999553 7.57642e-08
0.00997304 0.00163826 0.00999672
0.00996918 0.00163759 -5.05729e-08
0.00165889 -1.80497e-06 0.00999999
0.00166884 0.00999876 7.63183e-08
0 0.01 0.00166667
0.0100075 0.00997298 0.00999678
0 0 0.01
0.0100036 0.00997216 -1.14699e-06
0.00996628 -2.95082e-05 0.00999643
0 0.01 0.01
0.00996236 -3.00861e-05 2.14045e-07
0 0.01 0
0 0 0
0.00500548 0.00999072 -1.44052e-07
0.00331801 -5.70267e-06 0.00999907
0 0.00833333 0.01

CELLS 343 686
1 0
1 1
1 2
1 3
1 4
1 5
1 6
1 7
1 8
1 9
1 10
1 11
1 12
1 13
1 14
1 15
1 16
1 17
1 18
1 19
1 20
1 21
1 22
1 23
1 24
1 25
1 26
1 27
1 28
1 29
1 30
1 31
1 32
1 33
1 34
1 35
1 36
1 37
1 38
1 39
1 40
1 41
1 42
1 43
1 44
1 45
1 46
1 47
1 48
1 49
1 50
1 51
1 52
1 53
1 54
1 55
1 56
1 57
1 58
1 59
1 60
1 61
1 62
1 63
1 64
1 65
1 66
1 67
1 68
1 69
1 70
1 71
1 72
1 73
1 74
1 75
1 76
1 77
1 78
1 79
1 80
1 81
1 82
1 83
1 84
1 85
1 86
1 87
1 88
1 89
1 90
1 91
1 92
1 93
1 94
1 95
1 96
1 97
1 98
1 99
1 100
1 101
1 102
1 103
1 104
1 105
1 106
1 107
1 108
1 109
1 110
1 111
1 112
1 113
1 114
1 115
1 116
1 117
1 118
1 119
1 120
1 121
1 122
1 123
1 124
1 125
1 126
1 127
1 128
1 129
1 130
1 131
1 132
1 133
1 134
1 135
1 136
1 137
1 138
1 139
1 140
1 141
1 142
1 143
1 144
1 145
1 146
1 147
1 148
1 149
1 150
1 151
1 152
1 153
1 154
1 155
1 156
1 157
1 158
1 159
1 160
1 161
1 162
1 163
1 164
1 165
1 166
1 167
1 168
1 169
1 170
1 171
1 172
1 173
1 174
1 175
1 176
1 177
1 178
1 179
1 180
1 181
1 182
1 183
1 184
1 185
1 186
1 187
1 188
1 189
1 190
1 191
1 192
1 193
1 194
1 195
1 196
1 197
1 198
1 199
1 200
1 201
1 202
1 203
1 204
1 205
1 206
1 207
1 208
1 209
1 210
1 211
1 212
1 213
1 214
1 215
1 216
1 217
1 218
1 219
1 220
1 221
1 222
1 223
1 224
1 225
1 226
1 227
1 228
1 229
1 230
1 231
1 232
1 233
1 234
1 235
1 236
1 237
1 238
1 239
1 240
1 241
1 242
1 243
1 244
1 245
1 246
1 247
1 248
1 249
1 250
1 251
1 252
1 253
1 254
1 255
1 256
1 257
1 258
1 259
1 260
1 261
1 262
1 263
1 264
1 265
1 266
1 267
1 268
1 269
1 270
1 271
1 272
1 273
1 274
1 275
1 276
1 277
1 278
1 279
1 280
1 281
1 282
1 283
1 284
1 285
1 286
1 287
1 288
1 289
1 290
1 291
1 292
1 293
1 294
1 295
1 296
1 297
1 298
1 299
1 300
1 301
1 302
1 303
1 304
1 305
1 306
1 307
1 308
1 309
1 310
1 311
1 312
1 313
1 314
1 315
1 316
1 317
1 318
1 319
1 320
1 321
1 322
1 323
1 324
1 325
1 326
1 327
1 328
1 329
1 330
1 331
1 332
1 333
1 334
1 335
1 336
1 337
1 338
1 339
1 340
1 341
1 342

CELL_TYPES 343
1
1
1
1
1
1
1
1
1
1
1
1
1
1
1
1
1
1
1
1
1
1
1
1
1
1
1
1
1
1
1
1
1
1
1
1
1
1
1
1
1
1
1
1
1
1
1
1
1
1
1
1
1
1
1
1
1
1
1
1
1
1
1
1
1
1
1
1
1
1
1
1
1
1
1
1
1
1
1
1
1
1
1
1
1
1
1
1
1
1
1
1
1
1
1
1
1
1
1
1
1
1
1
1
1
1
1
1
1
1
1
1
1
1
1
1
1
1
1
1
1
1
1
1
1
1
1
1
1
1
1
1
1
1
1
1
1
1
1
1
1
1
1
1
1
1
1
1
1
1
1
1
1
1
1
1
1
1
1
1
1
1
1
1
1
1
1
1
1
1
1
1
1
1
1
1
1
1
1
1
1
1
1
1
1
1
1
1
1
1
1
1
1
1
1
1
1
1
1
1
1
1
1
1
1
1
1
1
1
1
1
1
1
1
1
1
1
1
1
1
1
1
1
1
1
1
1
1
1
1
1
1
1
1
1
1
1
1
1
1
1
1
1
1
1
1
1
1
1
1
1
1
1
1
1
1
1
1
1
1
1
1
1
1
1
1
1
1
1
1
1
1
1
1
1
1
1
1
1
1
1
1
1
1
1
1
1
1
1
1
1
1
1
1
1
1
1
1
1
1
1
1
1
1
1
1
1
1
1
1
1
1
1
1
1
1
1
1
1
1
1
1
1
1
1
1
1
1
1
1
1
1
1
1
1
1
1
1
1
1
1
1
1

POINT_DATA 343
FIELD FieldData 8

NodeID_(#) 1 343 int
0
1
2
3
4
5
6
7
8
9
10
11
12
13
14
15
16
17
18
19
20
21
22
23
24
25
26
27
28
29
30
31
32
33
34
35
36
37
38
39
40
41
42
43
44
45
46
47
48
49
50
51
52
53
54
55
56
57
58
59
60
61
62
63
64
65
66
67
68
69
70
71
72
73
74
75
76
77
78
79
80
81
82
83
84
85
86
87
88
89
90
91
92
93
94
95
96
97
98
99
100
101
102
103
104
105
106
107
108
109
110
111
112
113
114
115
116
117
118
119
120
121
122
123
124
125
126
127
128
129
130
131
132
133
134
135
136
137
138
139
140
141
142
143
144
145
146
147
148
149
150
151
152
153
154
155
156
157
158
159
160
161
162
163
164
165
166
167
168
169
170
171
172
173
174
175
176
177
178
179
180
181
182
183
184
185
186
187
188
189
190
191
192
193
194
195
196
197
198
199
200
201
202
203
204
205
206
207
208
209
210
211
212
213
214
215
216
217
218
219
220
221
222
223
224
225
226
227
228
229
230
231
232
233
234
235
236
237
238
239
240
241
242
243
244
245
246
247
248
249
250
251
252
253
254
255
256
257
258
259
260
261
262
263
264
265
266
267
268
269
270
271
272
273
274
275
276
277
278
279
280
281
282
283
284
285
286
287
288
289
290
291
292
293
294
295
296
297
298
299
300
301
302
303
304
305
306
307
308
309
310
311
312
313
314
315
316
317
318
319
320
321
322
323
324
325
326
327
328
329
330
331
332
333
334
335
336
337
338
339
340
341
342

Component_(#) 1 343 int
0
0
0
0
0
0
0
0
0
0
0
0
0
0
0
0
0
0
0
0
0
0
0
0
0
0
0
0
0
0
0
0
0
0
0
0
0
0
0
0
0
0
0
0
0
0
0
0
0
0
0
0
0
0
0
0
0
0
0
0
0
0
0
0
0
0
0
0
0
0
0
0
0
0
0
0
0
0
0
0
0
0
0
0
0
0
0
0
0
0
0
0
0
0
0
0
0
0
0
0
0
0
0
0
0
0
0
0
0
0
0
0
0
0
0
0
0
0
0
0
0
0
0
0
0
0
0
0
0
0
0
0
0
0
0
0
0
0
0
0
0
0
0
0
0
0
0
0
0
0
0
0
0
0
0
0
0
0
0
0
0
0
0
0
0
0
0
0
0
0
0
0
0
0
0
0
0
0
0
0
0
0
0
0
0
0
0
0
0
0
0
0
0
0
0
0
0
0
0
0
0
0
0
0
0
0
0
0
0
0
0
0
0
0
0
0
0
0
0
0
0
0
0
0
0
0
0
0
0
0
0
0
0
0
0
0
0
0
0
0
0
0
0
0
0
0
0
0
0
0
0
0
0
0
0
0
0
0
0
0
0
0
0
0
0
0
0
0
0
0
0
0
0
0
0
0
0
0
0
0
0
0
0
0
0
0
0
0
0
0
0
0
0
0
0
0
0
0
0
0
0
0
0
0
0
0
0
0
0
0
0
0
0
0
0
0
0
0
0
0
0
0
0
0
0
0
0
0
0
0
0
0
0
0
0
0
0
0
0
0
0
0
0

NodalMass_(kg) 1 343 double
3.15563e-06
1.41304e-05
2.20912e-06
1.71484e-05
8.42e-06
9.09306e-06
9.93033e-06
7.52198e-06
6.81096e-06
5.58223e-06
3.10888e-06
1.07575e-05
4.87011e-06
1.64955e-05
3.0246e-06
8.05984e-06
6.703e-06
1.0877e-05
4.18978e-06
8.16106e-06
6.14143e-06
1.17902e-05
2.23114e-06
4.25176e-06
1.09915e-05
7.41467e-06
4.21871e-06
3.92484e-06
3.08766e-06
1.31268e-05
7.72627e-06
1.65404e-05
1.19037e-05
7.29666e-06
3.81683e-06
1.11001e-05
3.81317e-06
1.39137e-05
6.37414e-06
8.00975e-06
7.6712e-06
1.18847e-05
1.6399e-05
2.78633e-06
8.93599e-06
2.58087e-06
7.57362e-06
4.23241e-06
1.31286e-05
3.80168e-06
2.7746e-06
7.16776e-06
1.21307e-05
5.11765e-06
8.19728e-06
4.58094e-06
2.79503e-06
3.26126e-06
4.12443e-06
2.11915e-06
3.35177e-06
3.61669e-06
1.56838e-05
7.33679e-06
8.24695e-06
5.00369e-06
2.82625e-06
7.20276e-06
3.26815e-06
4.18751e-06
2.02785e-06
2.42152e-06
3.11835e-06
5.97459e-06
5.87101e-06
4.09374e-06
5.45463e-06
2.28825e-06
4.49759e-06
4.38192e-06
4.50892e-06
4.39234e-06
4.27273e-06
5.32031e-06
1.53201e-06
2.38869e-06
2.02885e-06
4.38798e-06
3.17972e-06
3.14298e-06
4.61567e-06
5.87645e-06
8.18088e-06
2.48341e-06
1.53815e-05
3.49683e-06
7.35227e-06
2.01314e-06
2.0408e-06
7.98183e-06
4.41293e-06
7.1389e-06
1.20123e-06
5.03343e-06
1.61257e-06
4.12601e-06
8.73748e-06
4.37849e-06
7.97173e-06
2.13557e-06
3.38137e-06
9.48623e-06
7.40262e-06
1.80226e-06
2.10222e-06
7.98889e-06
1.87983e-06
7.44814e-06
4.19782e-06
2.37156e-06
4.31705e-06
6.06441e-06
4.30905e-06
2.16843e-06
1.8986e-06
1.81294e-06
3.89762e-06
2.44299e-06
1.65628e-06
8.01374e-06
1.64513e-06
2.3931e-06
3.01363e-06
2.99431e-06
1.36541e-06
1.87293e-06
2.09622e-06
1.94762e-06
1.87618e-06
6.37913e-06
4.58628e-06
2.02767e-06
1.61999e-06
2.41284e-06
3.8865e-06
4.44973e-06
2.29839e-06
1.17349e-05
3.11811e-06
1.354e-06
3.45063e-06
1.81846e-06
2.9382e-06
1.37381e-06
2.41464e-06
2.10451e-06
2.63927e-06
2.14166e-06
1.7943e-06
3.19976e-06
1.36989e-06
2.43489e-06
2.08158e-06
1.3601e-06
2.17203e-06
1.89924e-06
3.16996e-06
2.6119e-06
2.37677e-06
1.60225e-06
1.90684e-06
5.49206e-06
1.87878e-06
3.14313e-06
2.97301e-06
1.18454e-06
1.89263e-06
2.04166e-06
2.73572e-06
2.42405e-06
3.23083e-06
3.19752e-06
3.2142e-06
1.94492e-06
1.61196e-06
1.86876e-06
3.22435e-06
2.1114e-06
2.96917e-06
6.15288e-06
2.3097e-06
2.39729e-06
2.38029e-06
2.64508e-06
1.66557e-06
1.82377e-06
2.06583e-06
5.73271e-06
2.08467e-06
2.18324e-06
2.43522e-06
3.1188e-06
3.17316e-06
2.05447e-06
1.9592e-06
3.05718e-06
6.44327e-06
2.08796e-06
2.72615e-06
2.15709e-06
1.86812e-06
2.0028e-06
2.10999e-06
2.88994e-06
2.3222e-06
2.3979e-06
1.97629e-06
6.4127e-06
2.16225e-06
3.29198e-06
2.10223e-06
2.66566e-06
1.94415e-06
2.91865e-06
2.58116e-06
2.11703e-06
2.09534e-06
1.91719e-06
7.06046e-06
2.25203e-06
2.06378e-06
6.28159e-06
2.12147e-06
2.90924e-06
2.12921e-06
6.4487e-06
1.41701e-06
2.0682e-06
6.58062e-06
2.52584e-06
2.39732e-06
7.42191e-07
2.22368e-06
7.06751e-07
7.00657e-07
8.93749e-07
2.53536e-06
2.26535e-06
1.33607e-06
7.84725e-07
2.32303e-06
6.06694e-07
6.68276e-07
6.84307e-07
2.51242e-06
2.31629e-06
7.8367e-07
6.80839e-07
6.22692e-06
6.7471e-07
6.65305e-07
7.01158e-07
1.8232e-06
1.90695e-06
6.86722e-07
7.04792e-07
1.86445e-06
2.28572e-06
6.8045e-07
7.16005e-07
1.82373e-06
6.01079e-07
2.02791e-06
7.4579e-07
5.74423e-07
1.80052e-06
1.454e-06
2.2702e-06
1.80636e-06
2.15356e-06
1.79089e-06
1.79456e-06
6.8231e-07
2.24737e-06
1.45239e-06
1.79556e-06
6.97875e-07
6.24265e-07
6.62717e-07
1.44627e-06
1.40138e-06
2.15258e-06
1.82851e-06
1.3994e-06
1.43932e-06
2.19226e-06
6.97732e-07
1.77726e-06
1.79162e-06
6.54258e-07
7.3397e-07
2.34895e-06
7.10392e-07
6.56982e-07
6.26314e-07
2.18926e-06
6.12493e-07
6.03901e-07
5.92831e-07
5.12031e-07
5.11667e-07
4.9467e-07
4.97016e-07
4.96269e-07
5.33079e-07
4.94191e-07
4.97855e-07
4.86862e-07
4.90626e-07
4.94649e-07
4.94954e-07
4.91922e-07
4.89615e-07
4.96354e-07
4.95189e-07
4.82188e-07
1.10854e-06
5.3299e-07
5.44763e-07
5.36655e-07
5.15417e-07
5.01772e-07
5.53774e-07
5.53774e-07
5.53774e-07
5.53774e-07
5.53774e-07
5.53774e-07
5.50785e-07
5.50785e-07
7.45291e-07
7.11668e-07
4.9897e-07

NodalForce_(N) 3 343 double
2.59151e-08 5.04059e-09 2.06326e-09
8.29967e-08 6.76173e-08 3.02202e-08
0.000362142 0.000398128 0.000437472
2.85665e-07 5.68158e-08 2.16451e-08
1.67172e-07 2.45819e-07 2.01554e-07
-1.38046e-07 2.54766e-07 2.62377e-07
-6.26345e-08 5.8938e-07 6.67293e-07
1.12314e-07 3.13365e-07 3.01511e-07
-1.52484e-07 3.23446e-07 3.88463e-07
-4.86267e-08 1.48085e-07 1.27628e-07
-8.53041e-08 5.71205e-08 9.67504e-08
-1.87754e-07 3.10707e-07 4.12109e-07
8.55654e-09 8.21262e-08 1.3276e-07
1.09213e-08 4.35422e-08 3.49203e-08
-1.22215e-07 5.71356e-08 9.89844e-08
-5.25218e-07 3.91794e-07 4.90906e-07
-1.85789e-07 2.89101e-07 3.03419e-07
1.07918e-07 5.41541e-08 3.6148e-08
-0.00131426 0.00070068 -0.000160658
4.58824e-08 1.69893e-08 1.26121e-08
2.92834e-07 2.99998e-07 3.10588e-07
3.01527e-07 6.96584e-07 8.20773e-07
-0.00053394 -0.00164962 -0.000838071
3.23574e-07 8.99335e-08 1.05735e-07
6.34898e-07 3.07157e-07 3.07477e-07
2.80907e-07 1.27303e-07 1.4394e-07
5.42682e-08 3.782e-09 3.82919e-09
2.68782e-07 8.31968e-08 7.79716e-08
5.73496e-08 2.48197e-08 2.93774e-08
-8.08997e-08 4.83141e-08 2.62449e-08
1.14885e-07 1.40585e-07 1.60664e-07
-1.83e-06 9.95834e-07 1.42764e-06
-8.09505e-07 7.39246e-07 9.97062e-07
-3.08813e-07 5.05255e-07 6.29943e-07
-1.40338e-07 3.36631e-07 4.48632e-07
-4.90216e-07 6.30392e-07 7.4655e-07
-2.17269e-07 2.49221e-07 3.38996e-07
1.54528e-07 8.87433e-07 1.07652e-06
-2.6952e-08 8.70805e-08 8.00378e-08
-2.49286e-07 1.62411e-07 2.36301e-07
1.14951e-07 1.27608e-07 8.64324e-08
-8.42396e-07 3.00059e-07 4.17539e-07
-3.89451e-07 4.76349e-08 6.87897e-08
-1.2891e-07 2.1294e-08 2.56257e-08
-3.81672e-07 1.46998e-07 1.32888e-07
0.000956357 0.00076409 -0.000391586
-2.69988e-08 2.18884e-08 1.10732e-08
-0.000201339 0.00103973 3.37159e-05
-1.81069e-07 6.87074e-08 6.27504e-08
-4.41573e-08 8.92033e-09 8.92108e-09
-3.47434e-07 1.35058e-07 2.20482e-07
-5.42387e-07 2.67296e-07 3.92098e-07
-1.64496e-07 5.02408e-08 3.38025e-08
-1.18241e-07 4.52946e-08 4.30306e-08
-6.27298e-08 2.06877e-08 1.43251e-08
-3.791e-07 4.06619e-07 5.78392e-07
0.0007943 0.000606375 0.000696603
2.79763e-08 1.0755e-08 9.07623e-09
-0.000104258 -1.67428e-05 -0.000340219
-1.62485e-07 1.88228e-07 2.62523e-07
-1.18499e-07 2.86851e-08 5.12479e-08
2.16753e-07 3.14734e-07 4.14448e-07
1.45187e-06 1.00186e-06 1.15894e-06
2.38159e-07 5.05084e-07 6.00283e-07
2.26713e-07 1.34324e-07 7.1373e-08
-9.41587e-08 -1.01098e-09 1.02708e-08
5.37371e-08 1.98749e-08 1.70191e-08
-3.82373e-07 2.70953e-07 3.88472e-07
-5.16013e-08 2.95182e-07 3.80922e-07
3.09898e-07 2.7812e-07 3.49183e-07
1.05597e-07 2.63706e-08 3.24603e-08
-5.27328e-08 1.61699e-08 3.29516e-08
1.13364e-07 3.03073e-08 1.85681e-08
-2.39215e-07 1.40971e-07 1.83612e-07
9.39098e-08 5.96332e-08 3.64805e-08
0.00144228 0.000580147 0.00034371
1.13191e-07 1.39705e-07 1.14818e-07
3.92543e-08 2.72724e-09 5.12801e-09
-5.5482e-07 1.45033e-07 2.59932e-07
-5.29945e-07 1.44693e-07 2.42181e-07
-3.78412e-07 8.22872e-08 1.27556e-07
-3.8584e-07 7.24776e-08 1.40416e-07
-2.86727e-07 3.77036e-07 5.15063e-07
-3.60961e-08 5.85784e-08 3.49243e-08
4.55128e-05 -0.00110812 0.000390062
3.22225e-09 3.09361e-09 3.47106e-09
0.000104885 -0.000693792 0.000429333
-0.000765986 -0.000333721 7.16488e-05
-0.000289707 0.000264222 -0.000167313
9.40039e-08 2.28991e-08 2.74577e-08
-8.19692e-08 8.53565e-09 1.16003e-08
-2.53854e-07 1.64388e-07 1.79478e-07
-3.7334e-07 9.59986e-08 1.63976e-07
-1.6049e-07 1.1499e-07 1.80486e-07
-4.62941e-07 9.26461e-07 1.27442e-06
3.0662e-07 1.67477e-07 1.80113e-07
3.92914e-07 2.82593e-07 2.64851e-07
1.19116e-07 1.79114e-07 2.31089e-07
-6.58698e-05 0.000106518 -4.44896e-06
-5.82998e-07 3.25192e-07 3.90528e-07
4.73776e-07 1.63199e-07 2.01092e-07
4.40998e-07 2.80314e-07 3.17334e-07
-5.14781e-08 1.16329e-08 1.05158e-08
-4.66126e-07 3.20468e-07 4.55044e-07
7.70242e-08 1.455e-08 1.57657e-08
4.20132e-07 1.53433e-07 1.75972e-07
-2.22931e-07 3.59468e-07 3.75415e-07
1.69875e-07 2.86524e-07 3.7561e-07
5.18686e-08 3.10266e-07 3.46822e-07
-1.13795e-08 2.22859e-09 4.16651e-09
1.69581e-07 1.82713e-07 2.37342e-07
3.28828e-09 2.85523e-07 3.04048e-07
2.32464e-07 2.87121e-07 3.33996e-07
-0.000744586 -0.000360741 -0.000799792
1.98764e-07 1.84697e-07 2.39606e-07
-4.80929e-09 2.15155e-08 1.50875e-08
2.30624e-09 1.68716e-07 2.23684e-07
-4.13574e-08 5.25305e-07 6.14319e-07
-4.9277e-08 1.50091e-07 2.05197e-07
3.81983e-08 1.07171e-07 1.36752e-07
1.06976e-07 3.70168e-07 5.03129e-07
-7.03971e-08 4.15146e-07 5.17292e-07
4.20499e-08 4.70849e-09 4.55992e-09
0.000226641 0.000184429 0.00012546
9.96357e-09 6.61539e-10 3.12898e-10
-8.08767e-08 1.63212e-07 2.17458e-07
1.08175e-07 1.46537e-07 1.96599e-07
-0.000111283 -0.000756267 -0.000428447
-3.48531e-08 2.16631e-10 5.77573e-09
-1.82391e-07 1.62581e-07 1.1713e-07
-2.0923e-07 1.05024e-07 1.59158e-07
-2.51129e-07 2.08983e-07 3.01983e-07
-1.39386e-07 1.02545e-07 1.61543e-07
-2.62009e-07 1.52415e-07 2.35738e-07
0.000569491 -0.00115938 -0.000115716
-3.71042e-08 1.38049e-09 1.40141e-09
6.84244e-05 4.73146e-05 -0.000239779
2.11703e-07 1.31824e-07 1.61499e-07
4.04643e-08 1.73955e-07 2.19758e-07
2.11187e-07 4.64252e-07 5.41199e-07
-5.48022e-07 3.0875e-07 4.65817e-07
-1.08275e-07 1.07612e-07 1.66385e-07
8.50738e-09 1.05224e-07 1.48114e-07
-2.03653e-08 2.02937e-07 2.90758e-07
-0.00107373 0.000295873 9.78731e-05
-3.1552e-08 1.47823e-07 2.25374e-07
1.22675e-07 4.73211e-08 3.2131e-08
6.42559e-07 7.48146e-07 8.61634e-07
1.81123e-07 2.82094e-07 3.58861e-07
-9.28677e-08 2.51697e-08 2.85533e-08
-9.27094e-08 2.22775e-08 2.26983e-08
2.65519e-08 2.78063e-09 -1.05097e-09
-0.000268712 -0.000729327 -7.62072e-05
-6.73877e-08 1.23605e-07 1.66239e-07
-8.59188e-08 1.11841e-07 1.38596e-07
-3.09502e-07 1.08729e-07 1.83722e-07
0.000528022 -0.000856466 0.000267858
-0.00150387 0.000132811 0.000518959
-1.88916e-07 8.15756e-08 1.3169e-07
-5.83736e-08 2.82855e-07 3.83537e-07
2.82273e-08 2.45615e-08 2.3859e-08
-1.25042e-07 1.68949e-08 2.36217e-08
2.65932e-07 1.1801e-07 1.51319e-07
-1.38607e-07 4.45448e-08 7.83424e-08
-2.4265e-07 1.90302e-07 2.78783e-07
-2.73095e-07 1.26672e-07 1.99587e-07
3.22579e-07 1.60091e-07 2.00866e-07
8.45108e-08 3.22283e-08 4.303e-08
8.59322e-08 1.37577e-07 1.87144e-07
-6.69731e-09 8.71996e-08 1.19227e-07
8.5699e-08 7.17908e-08 9.51323e-08
5.21483e-08 2.83462e-07 3.01626e-07
2.2667e-07 1.03448e-07 1.25407e-07
-1.38436e-07 1.95019e-08 5.24396e-08
-2.1283e-07 5.14921e-08 1.07074e-07
-6.61187e-08 2.07883e-08 4.24267e-08
-2.67703e-07 9.70652e-08 1.55061e-07
1.03053e-08 1.02451e-08 1.4968e-08
5.93993e-08 2.50654e-07 3.14987e-07
0.000288603 -0.000736783 -0.000614179
-2.04244e-07 2.85184e-07 4.0487e-07
3.43251e-07 2.2997e-07 2.9409e-07
3.21334e-07 2.89024e-07 3.68491e-07
0.000292719 -0.00082611 0.000415677
-8.86722e-08 9.41532e-09 2.32124e-08
-2.7457e-08 9.50716e-08 1.4313e-07
-2.46095e-07 2.12357e-07 3.21009e-07
-2.06974e-07 1.52369e-07 2.25842e-07
-2.2985e-07 9.15061e-08 1.07445e-07
-2.30712e-07 1.78988e-07 1.64194e-07
-1.19835e-07 7.18946e-08 7.70612e-08
-2.56067e-07 1.07691e-07 1.47469e-07
-1.34413e-07 1.83126e-08 4.74711e-08
1.42238e-07 5.10708e-08 6.95792e-08
4.69585e-08 1.54253e-08 5.09116e-09
4.7746e-08 1.80295e-08 9.27506e-09
1.83739e-07 1.89299e-07 2.41616e-07
-1.91731e-08 9.32644e-08 9.97959e-08
4.74316e-08 1.88303e-07 2.4118e-07
1.43206e-07 1.07781e-07 1.34753e-07
-5.5334e-08 1.61979e-07 2.19696e-07
0.000326262 -0.000429579 0.000215053
-4.11499e-08 -6.94875e-10 4.89689e-09
-2.45731e-06 0.000483146 0.000142037
2.63987e-08 4.2231e-08 5.64627e-08
-5.39468e-08 5.51413e-08 7.17057e-08
1.79157e-07 1.74194e-07 1.78972e-07
1.79907e-07 1.15401e-07 1.44385e-07
1.57009e-07 9.03741e-08 7.70118e-08
6.70508e-08 6.94122e-08 6.97397e-08
-1.76939e-08 -4.93175e-10 9.36786e-10
2.56863e-07 1.43079e-07 1.84414e-07
-9.25615e-08 1.88263e-07 2.56885e-07
-2.0798e-07 1.35908e-07 1.74223e-07
-1.4963e-07 7.47561e-08 1.25899e-07
9.87274e-08 2.16649e-08 1.09386e-08
-8.69666e-08 1.70115e-07 2.45709e-07
-1.44541e-08 4.0884e-08 2.51026e-08
1.60513e-07 8.10956e-08 1.04979e-07
2.68047e-07 2.39011e-07 3.01211e-07
-1.97074e-07 6.03267e-08 8.22916e-08
-3.34535e-08 2.39659e-07 3.16229e-07
-6.03813e-08 5.76295e-08 6.61548e-08
1.52631e-07 1.41166e-07 1.62281e-07
-8.53284e-08 1.70016e-08 1.38153e-08
-0.000771721 -0.000162596 0.000239343
-1.84773e-07 3.94766e-08 8.11719e-08
2.26758e-08 5.6318e-08 6.98678e-08
2.05166e-08 9.8197e-08 6.01073e-08
-1.1764e-07 4.032e-08 3.70113e-08
8.03094e-08 4.00509e-08 2.30312e-08
-9.37528e-08 8.7524e-08 7.50926e-08
0.000770241 -0.000830386 3.91309e-06
-0.000244828 -5.1813e-05 0.000214083
1.07037e-07 6.11946e-08 8.12662e-08
-2.69318e-08 1.72032e-07 1.45314e-07
1.06067e-07 4.50869e-08 4.21324e-08
-2.8271e-08 1.88691e-07 2.43226e-07
-9.53843e-08 9.35032e-08 6.45442e-08
-2.07989e-07 8.0057e-08 1.41436e-07
1.41055e-07 2.22755e-07 2.80972e-07
0.000384895 -5.28269e-06 0.000290201
1.35031e-07 1.63539e-07 2.17387e-07
5.02611e-08 8.75446e-09 1.25207e-08
0.00060274 -0.00053355 -5.30692e-06
-1.10246e-07 1.97648e-08 4.34186e-08
0.00104385 -0.00025542 -0.000226478
9.29468e-08 2.10745e-07 2.69732e-07
1.05945e-07 1.24849e-07 1.66941e-07
8.60429e-05 -0.000346216 4.17692e-05
1.83477e-07 6.45088e-08 8.35239e-08
-0.000271018 -0.000305354 -0.000265393
6.28307e-08 5.54482e-08 7.55863e-08
-7.0641e-08 5.54923e-08 8.42161e-08
6.83614e-08 5.08198e-08 7.14294e-08
5.46383e-08 2.05681e-07 2.70235e-07
8.26478e-08 2.08248e-08 2.85855e-08
-0.000731761 -0.000772332 -9.60302e-05
2.15314e-08 9.35276e-08 6.39505e-08
-1.47883e-08 1.82626e-08 3.04028e-08
1.62559e-08 5.45551e-08 7.78925e-08
-0.00061936 -0.000573401 -2.71913e-05
7.26629e-09 1.28252e-07 1.79166e-07
5.14572e-08 1.72171e-07 2.30223e-07
4.04158e-08 5.66635e-08 7.86955e-08
7.09362e-08 6.6565e-08 8.70673e-08
2.89236e-08 3.65833e-09 3.36809e-09
0.000177075 0.000722157 -0.000309047
-0.000134979 0.000126016 0.000104777
3.0385e-05 -0.000249365 6.87476e-05
8.08583e-08 1.36936e-07 1.85958e-07
-1.96946e-08 5.05505e-08 7.13169e-08
-7.41641e-08 3.63375e-08 3.25152e-08
-9.6267e-08 6.51217e-08 9.9371e-08
1.49372e-05 -0.000186219 9.58554e-05
8.08873e-05 0.00057485 0.000167748
3.922e-09 1.32348e-09 3.84344e-09
-5.01025e-09 2.91745e-09 2.48591e-09
-2.74918e-07 1.18653e-07 1.92588e-07
-4.39604e-08 2.04007e-09 6.56762e-09
1.38749e-05 0.000465205 -0.000166723
-2.38463e-07 1.5332e-07 2.33659e-07
1.07342e-08 3.04983e-08 4.4684e-08
2.82295e-07 1.96644e-07 2.57956e-07
-2.98426e-08 1.56356e-09 3.21081e-09
-2.88492e-07 1.20667e-07 1.97141e-07
-7.4765e-08 6.08142e-08 9.19213e-08
-0.000693411 -0.000639994 -0.000127904