# vtk DataFile Version 4.2
vtk output
ASCII
DATASET UNSTRUCTURED_GRID

POINTS 343 double
0.00155586 0.00421504 -1.94268e-05
0.00300538 0.0050225 0.0021412
0 0.00419538 0.00112517
0.00268415 0.00198888 0.00191068
0.00702881 0.0024848 0.00497328
0.00701117 0.00392497 0.0063748
0.0101394 0.0049356 0.004934
0.00837307 0.00497941 0.00358844
0.00914226 0.00340893 0.00691831
0.00677759 0.00509394 0.00494086
0.0056363 0.00117781 0.0100155
0.00713785 0.0021586 0.00791241
0.00568423 3.88203e-05 0.00831649
0.00278277 0.00203516 0.00800332
0.00577422 0.00259893 0.0100164
0.00925151 0.00661724 0.00695754
0.00858818 0.00633451 0.00512514
0.00313004 0.00222199 0.00511533
0 0.00143586 0.00417514
0.00221285 0.00349251 0.0040137
0.00916572 0.00330975 0.00303298
0.0103216 0.00233054 0.00500124
0 0.00270918 0.00154168
0.00564794 0.00148796 -0.000109308
0.00680435 0.00226442 0.0020868
0.00540577 0.00359784 0.00151293
0.00187299 2.0351e-05 0.00404134
0.00570303 3.85432e-05 0.0015961
0.00357871 0.0070019 -6.35264e-05
0.0026707 0.00808635 0.00191314
0.00555383 0.00633323 0.00155193
0.0105105 0.00822001 0.00806039
0.010524 0.00498866 0.00808592
0.011041 0.00629069 0.00592163
0.0129012 0.00914997 0.00408999
0.0100246 0.00785105 0.00489561
0.0111726 0.0102995 0.00406709
0.0105104 0.00821214 0.00183663
0.00484147 0.00309882 0.00692644
0.00600904 0.00374012 0.00832555
0.00533882 0.00165582 0.00592884
0.00671802 0.00778484 0.00767522
0.00273542 0.00803871 0.00796283
0.00382877 0.0100663 0.00709392
0.00531131 0.00848997 0.00591602
0 0.00695361 0.00262895
0.00227535 0.00626845 0.00406157
0 0.0040177 0.00850214
0.00318752 0.00502786 0.00763077
0.0019712 0.00419976 0.00997989
0.00943471 0.00730693 0.0100943
0.00816158 0.00610912 0.00845477
0.00282711 0.0079748 0.00471088
0.00416778 0.00699668 0.00642637
0.00219011 0.0061059 0.00590289
0.012919 0.00602945 0.00840713
0 0.00718191 0.00711644
0.0021859 0.00580263 -2.96373e-05
0 0.00577432 0.00158701
0.0129117 0.00744378 0.00715809
0.00388241 0.00339808 0.00999741
0.0129927 0.00154183 0.00406917
0.010691 0.00205695 0.00179175
0.0111004 0.00365925 0.00388748
0.00512287 0.00170167 0.00407712
0.00207416 0.0100268 0.00579261
0.00386451 2.95046e-05 0.007093
0.00817794 0.00428863 0.00840923
0.0129381 0.00755575 0.00409401
0.0112965 4.46167e-05 0.00406486
0.00455707 0.00292771 -8.55165e-05
0.00366456 0.00157877 0.00999665
0.00388702 2.73997e-05 0.00279078
0.00648658 0.00528748 0.00755064
0.0043504 0.00320217 0.00312262
0 0.00849157 0.00581511
0.00662124 0.00375688 0.00370931
0.00213117 0.00273706 -2.86009e-05
0.00765944 0.00846464 0.0100668
0.00789242 0.0101739 0.00854788
0.00562912 0.0101062 0.0083172
0.0053616 0.00858672 0.0100215
0.0129 0.00878193 0.00579343
0.00431456 0.00689262 0.0031043
0 0.00748929 0.00137438
0.00189152 0.00751105 -2.40966e-05
0 0.00287343 0.00335182
0 0.00580816 0.00831736
0 0.00429792 0.00253898
0.00346961 0.00434418 -6.1271e-05
0.00196839 0.0058417 0.00998089
0.00698058 0.00658308 0.00637298
0.00488502 0.00657597 0.00822561
0.00919218 0.00271788 0.0100776
0.0105985 0.00205233 0.00809473
0.00931158 4.87979e-05 0.00294786
0.00810589 0.00173363 0.00350824
0.0129857 0.00301585 0.00320448
0 0.00140616 0.00256446
0.00848159 0.00838895 0.00640514
0.00780199 0.00149918 -0.000165166
0.00810434 0.00364692 0.00145333
0.00427594 0.0100757 0.00578833
0.0111584 0.0102959 0.00580447
0.00350134 0.00144137 -6.17388e-05
0.00802089 4.03058e-05 0.00134759
0.00837224 0.00845031 0.00351471
0.0112807 4.519e-05 0.00580915
0.00833391 0.00174503 0.00634753
0.00193352 0.0025877 0.00998093
0.00941588 0.00736549 -0.000203348
0.00695048 0.00781046 0.00205418
0.0079654 0.00622314 0.0014543
0 0.00686719 0.00578184
0.0129901 0.00150894 0.00238668
0.00245262 0.00364069 0.00638176
0.0129061 0.00878196 0.00245059
0.0110762 0.00638161 0.00402905
0.00792892 0.0101853 0.00134588
0.00928395 4.29127e-05 0.00693727
0.012982 0.00154436 0.0058044
0.0110672 0.00370708 0.00604469
0.00208259 2.2911e-05 0.00579334
0 0.0013659 0.00748679
0.00188896 1.91517e-05 0.00750521
0.0129375 0.00713039 0.00575297
0.00773789 0.00864517 -0.000172578
0 0.0075208 0.00859127
0.00187199 0.00750382 0.00998372
0.00573793 0.00830189 0.00356033
0.0111749 0.0102925 0.00756086
0.012873 0.00892362 0.00758777
0.00769529 0.00165557 0.0100551
0.00957712 0.00431172 0.0100879
0 0.0057735 0.00666667
0.00188162 0.0100255 0.00750565
0 0.00863025 0.00752641
0.0113268 4.55682e-05 0.00233621
0.0129418 0.00722986 0.0024562
0.011131 0.00654863 0.00197913
0.0111236 0.0060091 0.0101241
0.00987343 0.00145978 0.0100938
0.011295 4.62032e-05 0.00755864
0.0129581 0.00147009 0.00754541
0 0.00143551 0.00581971
0.00799248 4.07825e-05 0.00854183
0.00573587 3.42918e-05 0.00332662
0.0105123 0.00486267 0.00185166
0.0129733 0.0044757 0.00235047
0.00567743 0.0101139 0.00664097
0.00384899 0.0100686 0.00278762
0.00182048 1.89135e-05 0.00239917
0 0.00727418 0.00419576
0.0129411 0.00598897 0.00668647
0.00919177 0.0102274 0.00295231
0.00981967 0.00883865 0.0101035
0 0.00574334 0.00336387
0 0.0043297 0.00416652
0.00906447 0.00592268 0.0100861
0.0129617 0.0031634 0.0069513
0.00573933 3.45086e-05 0.00664292
0.00335058 0.0100591 0.00859493
0.00993163 0.00144532 -0.000210936
0.00765975 0.00678736 0.0100621
0.0128823 0.00778392 0.00869313
0.011212 0.0077759 0.0101304
0.00921048 0.00311854 -0.000195064
0.00456671 0.00580668 -8.61326e-05
0.00990247 0.00885081 -0.000213318
0.00986031 0.0102565 0.00120638
0.00772389 0.00700068 -0.000169034
0.00928235 0.00653484 0.00290084
0.00998401 4.80172e-05 0.00120136
0.00389459 0.00504434 0.00999887
0.00580252 0.00590555 0.0100281
0.00581206 0.00423456 0.0100243
0.00983001 0.010239 0.0086903
0.00338033 2.40427e-05 0.00859094
0.012966 0.00595408 0.00321601
0 0.00302218 0.00691532
0.0129341 0.00418203 0.0085972
0.0111787 0.004162 -0.0002477
0.0129804 0.00284927 0.00131326
0 0.00244495 0.00857025
0.00329408 0.00861439 0.00999885
0.00993835 4.83924e-05 0.00868462
0.0111184 0.00273476 0.0101201
0.0115474 0.00434461 0.0101299
0.00755603 0.0101674 0.00580346
0.00698595 0.00770067 0.00497734
0.00752712 0.0101697 0.0041366
0.00917716 0.0102191 0.00693819
0.00407079 0.00696258 0.0100051
0.00563962 0.00440452 -0.000113985
0.00389109 3.11629e-05 0.00436516
0.00431863 3.13047e-05 0.00578826
0.0129626 0.00437175 0.000881498
0.00492727 0.00841796 0.0015088
0.0129773 0.00451181 0.00406736
0.00887203 0.00591691 -0.000193324
0.0112017 0.0103042 0.00234461
0 0.00848692 0.00262374
0.00185931 0.0100228 0.00403965
0 0.00885053 0.00419359
0.00562798 0.00895362 -0.000116023
0.00564991 0.0101159 0.00159469
0.00676975 0.00488434 0.00227023
0.00958702 0.00465632 -0.000207519
0.0076104 4.20706e-05 0.00412874
0.00764083 4.18769e-05 0.00579996
0.00180563 0.0100232 0.00239863
0.0112765 0.00255768 -0.000249191
0.0129462 0.00470522 0.00726966
0.00936731 0.0102332 0.00493851
0.00765539 0.00345162 0.0100509
0.00337334 2.22591e-05 0.00130903
0.0129385 0.00257212 0.00866777
0.00329758 0.00483392 0.00496496
0.00781231 0.00443069 -0.000167472
0.0109356 0.00600378 -0.000237916
0.00728877 0.0101558 0.00721296
0.0129646 0.00451103 0.00581306
0.00721138 0.0101607 0.00267056
0.00948542 4.36243e-05 0.00493246
0.00385517 0.0100669 0.00436177
0 0.00452174 0.00721958
0.00603532 0.00731084 0.010034
0.00737325 4.09141e-05 0.00721818
0.00493797 0.00514013 0.00354231
0.00572865 0.0101198 0.00495683
0.00579031 3.0789e-05 0.00495681
0.00501804 0.00528262 0.0061318
0 0.005744 0.00499998
0 0.00433013 0.00583333
0.00672294 0.00584503 -0.000143068
0.00674458 0.00644146 0.00346848
0.00728711 4.16264e-05 0.00266924
0.0129609 0.00594901 0.00494009
0.00504642 0.00647632 0.00479258
0.00764527 0.00510146 0.0100547
0.0129545 0.00599262 0.00135734
0 0.00666667 0
0.0112338 0.0077552 -0.000245103
0.00452514 2.40886e-05 -7.77636e-05
0 0.01 0.00666667
0.00660242 0.010141 0.01004
0 0.00288419 0.00499914
0.0129213 0.00777801 0.00113539
0.0129201 0.00691826 -0.000272788
0 0.005 0.01
0.00673425 0.00295565 -0.000139175
0 0.005 0
0.0129758 3.1913e-05 0.00318723
0.0128292 0.0103638 0.00669206
0.00565271 0.00736431 -0.000117002
0.0129827 0.00301796 0.00493918
0.0067239 2.78175e-05 -0.000126584
0 0 0.00666667
0.00520319 0.00368099 0.00517849
0.00668088 3.88551e-05 0.0100329
0.0129548 3.3813e-05 0.00669246
0 0 0.005
0.0114146 0.010317 0.00100515
0.0128887 0.0090921 0.000979722
0.0129702 3.29763e-05 0.0049427
0.0129356 0.0052016 -0.000279036
0.0016898 0.00124127 -2.1573e-05
0 0.00122008 0.00122008
0 0.00333333 0.01
0 0.00666667 0.01
0.0114251 0.0090551 -0.000249212
0.0128514 0.0103702 0.0031978
0.00568104 0.0101177 0.0033282
0.0128595 0.00690657 0.0101634
0 0.00333333 0
0 0.00122008 0.00877992
0.00167921 1.60556e-05 0.00876385
0.00167881 0.00123996 0.0099835
0.0113794 0.0102971 0.00888082
0.00167216 0.00879845 0.0099859
0 0.00877992 0.00877992
0.0128522 0.009078 0.00889139
0.00878482 0.0102245 -0.000182891
0.012985 0.0013134 0.00098144
0.0016709 0.0100242 0.00876376
0.0113909 0.00903736 0.0101363
0.012883 0.0051947 0.0101609
0 0 0.00333333
0.00888712 3.13446e-05 -0.000175729
0.0115421 4.40888e-05 0.000999979
0.00167662 1.58367e-05 0.00119138
0 0.00877992 0.00122008
0.00167702 0.00880091 -2.18562e-05
0.00166224 0.0100233 0.00119217
0.0129401 0.00131793 0.00888907
0.011475 0.0013087 0.0101281
0.00883259 4.25982e-05 0.0100728
0.0115331 0.0013 -0.000253328
0.0114977 4.84856e-05 0.008878
0.0129536 0.00348799 -0.000281203
0.00444989 0.0100842 0.0100057
0.00334013 0.0100586 0.0013089
0.00872899 0.0102062 0.0100783
0.012898 0.00347496 0.0101563
0 0.01 0.005
0.00355901 0.00854084 -6.26945e-05
0.0128452 0.010369 0.00493374
0 0.01 0.00333333
0 0.00166667 0
0.0129737 3.60052e-05 0.00144753
0 0.00166667 0.01
0 0.00833333 0
0.0128781 0.00864005 -0.000283153
0.0129333 4.01431e-05 0.00842784
0.0128471 0.0103697 0.00144911
0.0128098 0.0103566 0.00842989
0.00225831 0.0100406 0.00998667
0 0.01 0.00833333
0.0108526 0.010305 -0.000225783
0.0109802 3.5873e-05 -0.000228583
0.0109221 4.90636e-05 0.0101137
0.0108094 0.0102782 0.0101213
0 0 0.00833333
0.012831 0.00861449 0.0101642
0.00229219 1.32185e-05 -2.97402e-05
0 0 0.00166667
0.00448015 0.0100873 -8.42711e-05
0.012908 0.0017807 0.0101561
0.012965 0.001775 -0.000279553
0.00227703 1.84133e-05 0.00998609
0.0022687 0.0100375 -3.32908e-05
0 0.01 0.00166667
0.0127926 0.0103503 0.0101596
0 0 0.01
0.0128348 0.0103698 -0.000274929
0.0129147 4.69103e-05 0.010154
0 0.01 0.01
0.0129698 3.16936e-05 -0.000272218
0 0.01 0
0 0 0
0.00665424 0.0101532 -0.000138679
0.00449125 3.605e-05 0.0100068
0 0.00833333 0.01

CELLS 343 686
1 0
1 1
1 2
1 3
1 4
1 5
1 6
1 7
1 8
1 9
1 10
1 11
1 12
1 13
1 14
1 15
1 16
1 17
1 18
1 19
1 20
1 21
1 22
1 23
1 24
1 25
1 26
1 27
1 28
1 29
1 30
1 31
1 32
1 33
1 34
1 35
1 36
1 37
1 38
1 39
1 40
1 41
1 42
1 43
1 44
1 45
1 46
1 47
1 48
1 49
1 50
1 51
1 52
1 53
1 54
1 55
1 56
1 57
1 58
1 59
1 60
1 61
1 62
1 63
1 64
1 65
1 66
1 67
1 68
1 69
1 70
1 71
1 72
1 73
1 74
1 75
1 76
1 77
1 78
1 79
1 80
1 81
1 82
1 83
1 84
1 85
1 86
1 87
1 88
1 89
1 90
1 91
1 92
1 93
1 94
1 95
1 96
1 97
1 98
1 99
1 100
1 101
1 102
1 103
1 104
1 105
1 106
1 107
1 108
1 109
1 110
1 111
1 112
1 113
1 114
1 115
1 116
1 117
1 118
1 119
1 120
1 121
1 122
1 123
1 124
1 125
1 126
1 127
1 128
1 129
1 130
1 131
1 132
1 133
1 134
1 135
1 136
1 137
1 138
1 139
1 140
1 141
1 142
1 143
1 144
1 145
1 146
1 147
1 148
1 149
1 150
1 151
1 152
1 153
1 154
1 155
1 156
1 157
1 158
1 159
1 160
1 161
1 162
1 163
1 164
1 165
1 166
1 167
1 168
1 169
1 170
1 171
1 172
1 173
1 174
1 175
1 176
1 177
1 178
1 179
1 180
1 181
1 182
1 183
1 184
1 185
1 186
1 187
1 188
1 189
1 190
1 191
1 192
1 193
1 194
1 195
1 196
1 197
1 198
1 199
1 200
1 201
1 202
1 203
1 204
1 205
1 206
1 207
1 208
1 209
1 210
1 211
1 212
1 213
1 214
1 215
1 216
1 217
1 218
1 219
1 220
1 221
1 222
1 223
1 224
1 225
1 226
1 227
1 228
1 229
1 230
1 231
1 232
1 233
1 234
1 235
1 236
1 237
1 238
1 239
1 240
1 241
1 242
1 243
1 244
1 245
1 246
1 247
1 248
1 249
1 250
1 251
1 252
1 253
1 254
1 255
1 256
1 257
1 258
1 259
1 260
1 261
1 262
1 263
1 264
1 265
1 266
1 267
1 268
1 269
1 270
1 271
1 272
1 273
1 274
1 275
1 276
1 277
1 278
1 279
1 280
1 281
1 282
1 283
1 284
1 285
1 286
1 287
1 288
1 289
1 290
1 291
1 292
1 293
1 294
1 295
1 296
1 297
1 298
1 299
1 300
1 301
1 302
1 303
1 304
1 305
1 306
1 307
1 308
1 309
1 310
1 311
1 312
1 313
1 314
1 315
1 316
1 317
1 318
1 319
1 320
1 321
1 322
1 323
1 324
1 325
1 326
1 327
1 328
1 329
1 330
1 331
1 332
1 333
1 334
1 335
1 336
1 337
1 338
1 339
1 340
1 341
1 342

CELL_TYPES 343
1
1
1
1
1
1
1
1
1
1
1
1
1
1
1
1
1
1
1
1
1
1
1
1
1
1
1
1
1
1
1
1
1
1
1
1
1
1
1
1
1
1
1
1
1
1
1
1
1
1
1
1
1
1
1
1
1
1
1
1
1
1
1
1
1
1
1
1
1
1
1
1
1
1
1
1
1
1
1
1
1
1
1
1
1
1
1
1
1
1
1
1
1
1
1
1
1
1
1
1
1
1
1
1
1
1
1
1
1
1
1
1
1
1
1
1
1
1
1
1
1
1
1
1
1
1
1
1
1
1
1
1
1
1
1
1
1
1
1
1
1
1
1
1
1
1
1
1
1
1
1
1
1
1
1
1
1
1
1
1
1
1
1
1
1
1
1
1
1
1
1
1
1
1
1
1
1
1
1
1
1
1
1
1
1
1
1
1
1
1
1
1
1
1
1
1
1
1
1
1
1
1
1
1
1
1
1
1
1
1
1
1
1
1
1
1
1
1
1
1
1
1
1
1
1
1
1
1
1
1
1
1
1
1
1
1
1
1
1
1
1
1
1
1
1
1
1
1
1
1
1
1
1
1
1
1
1
1
1
1
1
1
1
1
1
1
1
1
1
1
1
1
1
1
1
1
1
1
1
1
1
1
1
1
1
1
1
1
1
1
1
1
1
1
1
1
1
1
1
1
1
1
1
1
1
1
1
1
1
1
1
1
1
1
1
1
1
1
1
1
1
1
1
1
1
1
1
1
1
1
1
1
1
1
1
1
1
1
1
1
1
1
1

POINT_DATA 343
FIELD FieldData 8

NodeID_(#) 1 343 int
0
1
2
3
4
5
6
7
8
9
10
11
12
13
14
15
16
17
18
19
20
21
22
23
24
25
26
27
28
29
30
31
32
33
34
35
36
37
38
39
40
41
42
43
44
45
46
47
48
49
50
51
52
53
54
55
56
57
58
59
60
61
62
63
64
65
66
67
68
69
70
71
72
73
74
75
76
77
78
79
80
81
82
83
84
85
86
87
88
89
90
91
92
93
94
95
96
97
98
99
100
101
102
103
104
105
106
107
108
109
110
111
112
113
114
115
116
117
118
119
120
121
122
123
124
125
126
127
128
129
130
131
132
133
134
135
136
137
138
139
140
141
142
143
144
145
146
147
148
149
150
151
152
153
154
155
156
157
158
159
160
161
162
163
164
165
166
167
168
169
170
171
172
173
174
175
176
177
178
179
180
181
182
183
184
185
186
187
188
189
190
191
192
193
194
195
196
197
198
199
200
201
202
203
204
205
206
207
208
209
210
211
212
213
214
215
216
217
218
219
220
221
222
223
224
225
226
227
228
229
230
231
232
233
234
235
236
237
238
239
240
241
242
243
244
245
246
247
248
249
250
251
252
253
254
255
256
257
258
259
260
261
262
263
264
265
266
267
268
269
270
271
272
273
274
275
276
277
278
279
280
281
282
283
284
285
286
287
288
289
290
291
292
293
294
295
296
297
298
299
300
301
302
303
304
305
306
307
308
309
310
311
312
313
314
315
316
317
318
319
320
321
322
323
324
325
326
327
328
329
330
331
332
333
334
335
336
337
338
339
340
341
342

Component_(#) 1 343 int
0
0
0
0
0
0
0
0
0
0
0
0
0
0
0
0
0
0
0
0
0
0
0
0
0
0
0
0
0
0
0
0
0
0
0
0
0
0
0
0
0
0
0
0
0
0
0
0
0
0
0
0
0
0
0
0
0
0
0
0
0
0
0
0
0
0
0
0
0
0
0
0
0
0
0
0
0
0
0
0
0
0
0
0
0
0
0
0
0
0
0
0
0
0
0
0
0
0
0
0
0
0
0
0
0
0
0
0
0
0
0
0
0
0
0
0
0
0
0
0
0
0
0
0
0
0
0
0
0
0
0
0
0
0
0
0
0
0
0
0
0
0
0
0
0
0
0
0
0
0
0
0
0
0
0
0
0
0
0
0
0
0
0
0
0
0
0
0
0
0
0
0
0
0
0
0
0
0
0
0
0
0
0
0
0
0
0
0
0
0
0
0
0
0
0
0
0
0
0
0
0
0
0
0
0
0
0
0
0
0
0
0
0
0
0
0
0
0
0
0
0
0
0
0
0
0
0
0
0
0
0
0
0
0
0
0
0
0
0
0
0
0
0
0
0
0
0
0
0
0
0
0
0
0
0
0
0
0
0
0
0
0
0
0
0
0
0
0
0
0
0
0
0
0
0
0
0
0
0
0
0
0
0
0
0
0
0
0
0
0
0
0
0
0
0
0
0
0
0
0
0
0
0
0
0
0
0
0
0
0
0
0
0
0
0
0
0
0
0
0
0
0
0
0
0
0
0
0
0
0
0
0
0
0
0
0
0
0
0
0
0
0
0

NodalMass_(kg) 1 343 double
3.15563e-06
1.41304e-05
2.20912e-06
1.71484e-05
8.42e-06
9.09306e-06
9.93033e-06
7.52198e-06
6.81096e-06
5.58223e-06
3.10888e-06
1.07575e-05
4.87011e-06
1.64955e-05
3.0246e-06
8.05984e-06
6.703e-06
1.0877e-05
4.18978e-06
8.16106e-06
6.14143e-06
1.17902e-05
2.23114e-06
4.25176e-06
1.09915e-05
7.41467e-06
4.21871e-06
3.92484e-06
3.08766e-06
1.31268e-05
7.72627e-06
1.65404e-05
1.19037e-05
7.29666e-06
3.81683e-06
1.11001e-05
3.81317e-06
1.39137e-05
6.37414e-06
8.00975e-06
7.6712e-06
1.18847e-05
1.6399e-05
2.78633e-06
8.93599e-06
2.58087e-06
7.57362e-06
4.23241e-06
1.31286e-05
3.80168e-06
2.7746e-06
7.16776e-06
1.21307e-05
5.11765e-06
8.19728e-06
4.58094e-06
2.79503e-06
3.26126e-06
4.12443e-06
2.11915e-06
3.35177e-06
3.61669e-06
1.56838e-05
7.33679e-06
8.24695e-06
5.00369e-06
2.82625e-06
7.20276e-06
3.26815e-06
4.18751e-06
2.02785e-06
2.42152e-06
3.11835e-06
5.97459e-06
5.87101e-06
4.09374e-06
5.45463e-06
2.28825e-06
4.49759e-06
4.38192e-06
4.50892e-06
4.39234e-06
4.27273e-06
5.32031e-06
1.53201e-06
2.38869e-06
2.02885e-06
4.38798e-06
3.17972e-06
3.14298e-06
4.61567e-06
5.87645e-06
8.18088e-06
2.48341e-06
1.53815e-05
3.49683e-06
7.35227e-06
2.01314e-06
2.0408e-06
7.98183e-06
4.41293e-06
7.1389e-06
1.20123e-06
5.03343e-06
1.61257e-06
4.12601e-06
8.73748e-06
4.37849e-06
7.97173e-06
2.13557e-06
3.38137e-06
9.48623e-06
7.40262e-06
1.80226e-06
2.10222e-06
7.98889e-06
1.87983e-06
7.44814e-06
4.19782e-06
2.37156e-06
4.31705e-06
6.06441e-06
4.30905e-06
2.16843e-06
1.8986e-06
1.81294e-06
3.89762e-06
2.44299e-06
1.65628e-06
8.01374e-06
1.64513e-06
2.3931e-06
3.01363e-06
2.99431e-06
1.36541e-06
1.87293e-06
2.09622e-06
1.94762e-06
1.87618e-06
6.37913e-06
4.58628e-06
2.02767e-06
1.61999e-06
2.41284e-06
3.8865e-06
4.44973e-06
2.29839e-06
1.17349e-05
3.11811e-06
1.354e-06
3.45063e-06
1.81846e-06
2.9382e-06
1.37381e-06
2.41464e-06
2.10451e-06
2.63927e-06
2.14166e-06
1.7943e-06
3.19976e-06
1.36989e-06
2.43489e-06
2.08158e-06
1.3601e-06
2.17203e-06
1.89924e-06
3.16996e-06
2.6119e-06
2.37677e-06
1.60225e-06
1.90684e-06
5.49206e-06
1.87878e-06
3.14313e-06
2.97301e-06
1.18454e-06
1.89263e-06
2.04166e-06
2.73572e-06
2.42405e-06
3.23083e-06
3.19752e-06
3.2142e-06
1.94492e-06
1.61196e-06
1.86876e-06
3.22435e-06
2.1114e-06
2.96917e-06
6.15288e-06
2.3097e-06
2.39729e-06
2.38029e-06
2.64508e-06
1.66557e-06
1.82377e-06
2.06583e-06
5.73271e-06
2.08467e-06
2.18324e-06
2.43522e-06
3.1188e-06
3.17316e-06
2.05447e-06
1.9592e-06
3.05718e-06
6.44327e-06
2.08796e-06
2.72615e-06
2.15709e-06
1.86812e-06
2.0028e-06
2.10999e-06
2.88994e-06
2.3222e-06
2.3979e-06
1.97629e-06
6.4127e-06
2.16225e-06
3.29198e-06
2.10223e-06
2.66566e-06
1.94415e-06
2.91865e-06
2.58116e-06
2.11703e-06
2.09534e-06
1.91719e-06
7.06046e-06
2.25203e-06
2.06378e-06
6.28159e-06
2.12147e-06
2.90924e-06
2.12921e-06
6.4487e-06
1.41701e-06
2.0682e-06
6.58062e-06
2.52584e-06
2.39732e-06
7.42191e-07
2.22368e-06
7.06751e-07
7.00657e-07
8.93749e-07
2.53536e-06
2.26535e-06
1.33607e-06
7.84725e-07
2.32303e-06
6.06694e-07
6.68276e-07
6.84307e-07
2.51242e-06
2.31629e-06
7.8367e-07
6.80839e-07
6.22692e-06
6.7471e-07
6.65305e-07
7.01158e-07
1.8232e-06
1.90695e-06
6.86722e-07
7.04792e-07
1.86445e-06
2.28572e-06
6.8045e-07
7.16005e-07
1.82373e-06
6.01079e-07
2.02791e-06
7.4579e-07
5.74423e-07
1.80052e-06
1.454e-06
2.2702e-06
1.80636e-06
2.15356e-06
1.79089e-06
1.79456e-06
6.8231e-07
2.24737e-06
1.45239e-06
1.79556e-06
6.97875e-07
6.24265e-07
6.62717e-07
1.44627e-06
1.40138e-06
2.15258e-06
1.82851e-06
1.3994e-06
1.43932e-06
2.19226e-06
6.97732e-07
1.77726e-06
1.79162e-06
6.54258e-07
7.3397e-07
2.34895e-06
7.10392e-07
6.56982e-07
6.26314e-07
2.18926e-06
6.12493e-07
6.03901e-07
5.92831e-07
5.12031e-07
5.11667e-07
4.9467e-07
4.97016e-07
4.96269e-07
5.33079e-07
4.94191e-07
4.97855e-07
4.86862e-07
4.90626e-07
4.94649e-07
4.94954e-07
4.91922e-07
4.89615e-07
4.96354e-07
4.95189e-07
4.82188e-07
1.10854e-06
5.3299e-07
5.44763e-07
5.36655e-07
5.15417e-07
5.01772e-07
5.53774e-07
5.53774e-07
5.53774e-07
5.53774e-07
5.53774e-07
5.53774e-07
5.50785e-07
5.50785e-07
7.45291e-07
7.11668e-07
4.9897e-07

NodalForce_(N) 3 343 double
-9.90041e-05 -3.01412e-06 3.43306e-06
-0.000797148 -9.93694e-05 5.69457e-05
0.00209522 -0.000704655 -0.0019536
-0.000947702 -8.41828e-05 0.000113089
-0.000985067 -0.000130618 9.57885e-05
-0.0010322 -0.000164228 9.36439e-05
-0.00146034 -0.000106541 2.90476e-05
-0.000962242 -0.000104241 4.16303e-05
-0.000946282 -0.000117523 5.46657e-05
-0.000608385 -9.28099e-05 4.9389e-05
-0.000348363 -2.21248e-05 3.60857e-05
-0.00133933 -0.000165034 0.000141725
-0.000538775 -2.51944e-05 7.84764e-05
-0.000963367 -9.6597e-05 0.000102649
-0.000330587 -2.71085e-05 2.72718e-05
-0.00107949 -9.27139e-05 2.34976e-05
-0.000871612 -7.64206e-05 3.31471e-05
-0.000598715 -0.000102117 0.000137589
0.00803258 -0.00127079 -0.00371371
-0.000335679 -6.74581e-05 5.3505e-05
-0.000856514 -9.90445e-05 5.08131e-05
-0.00180261 -0.000209876 0.000100018
0.00570703 0.00363848 0.00482306
-0.000454168 -5.68932e-05 4.35619e-05
-0.00130001 -0.000146578 0.000102613
-0.000703409 -7.88985e-05 3.82718e-05
-0.000160589 -1.56973e-05 4.51487e-05
-0.000429773 -4.0101e-05 5.17404e-05
-0.000196601 -2.25232e-05 1.57111e-05
-0.000605211 -8.14478e-05 6.33298e-05
-0.000699374 -9.53311e-05 1.89644e-05
-0.00232603 -1.89227e-05 -0.000139446
-0.00168219 -0.000176963 -2.13143e-05
-0.00112539 -5.32003e-05 -1.53025e-05
-0.000736339 5.71978e-06 -6.4454e-05
-0.0016812 -7.33137e-05 -1.47091e-05
-0.000683364 -4.03748e-05 -5.91893e-05
-0.00228842 -0.000163531 -2.19528e-05
-0.000549431 -8.18338e-05 7.79167e-05
-0.000830177 -0.000131129 8.27805e-05
-0.000723783 -8.13318e-05 0.000127449
-0.00126117 -0.000131605 9.44313e-05
-0.000798844 -9.31531e-05 0.00013786
-0.000173053 -1.94987e-05 3.15028e-05
-0.000787209 -0.000101173 7.57586e-05
-0.00147118 -0.00360766 0.000963312
-0.000317816 -5.40628e-05 5.05468e-05
0.00129028 -0.00286977 -0.00318015
-0.000820141 -0.000192502 0.000101119
-0.000156578 -2.34914e-05 1.21204e-05
-0.000338817 -1.4855e-05 -9.29229e-06
-0.000871623 -0.000105956 4.1384e-05
-0.00063188 -8.60453e-05 0.00011758
-0.000378739 -5.72138e-05 4.20285e-05
-0.000341113 -7.25934e-05 3.9446e-05
-0.000728304 -5.20887e-05 -7.32901e-05
0.00346895 -0.00220286 -0.00146617
-0.000135619 -9.57802e-06 6.05466e-06
0.00581194 -0.00159507 0.00467699
-0.000358906 1.28354e-07 -3.65031e-05
-0.000270049 -2.66191e-05 7.27313e-06
-0.000662396 -9.68687e-05 -8.7368e-06
-0.00258468 -0.000298987 7.81742e-05
-0.00116584 -9.64186e-05 4.00445e-05
-0.000741171 -9.38983e-05 9.4063e-05
-0.000183183 -1.1664e-05 5.09125e-05
-0.000204919 -1.50859e-05 3.98275e-05
-0.000920108 -0.000113848 6.09125e-05
-0.000610265 1.18525e-05 -2.41322e-05
-0.000745728 -7.84308e-05 1.10129e-05
-0.000172825 -1.93717e-05 1.40197e-05
-0.000195461 -7.8703e-06 1.30378e-05
-0.000238942 -1.86363e-05 3.68758e-05
-0.000636381 -0.000100846 5.20013e-05
-0.000454782 -6.92747e-05 3.85361e-05
0.0042275 -0.00292344 -0.0029137
-0.000598669 -7.91841e-05 4.4188e-05
-9.85543e-05 -6.51607e-06 7.87311e-06
-0.000469232 -1.39509e-05 -4.06762e-06
-0.000500788 -2.18216e-05 -1.9084e-05
-0.000398672 -3.2814e-05 3.7924e-05
-0.000364496 -1.71844e-05 3.73942e-05
-0.000775192 1.73533e-05 -9.02766e-05
-0.000392719 -6.50755e-05 2.39844e-05
0.0031331 0.00163803 -0.00148916
-7.74187e-05 -6.89349e-06 2.74497e-06
0.00225995 -1.74417e-05 0.000353116
-0.00543428 0.00130314 0.00101681
0.00428494 -0.00159617 0.000784223
-0.0002003 -1.22141e-05 1.15762e-05
-0.000176781 -2.31739e-05 2.20433e-05
-0.000653037 -8.56983e-05 4.59367e-05
-0.000694385 -0.000101131 6.0176e-05
-0.00033831 -4.7915e-05 9.22177e-06
-0.00228604 -0.000348431 3.94898e-05
-0.000538213 -5.68175e-05 3.22123e-05
-0.000977643 -0.000111874 8.51773e-05
-0.000363101 -3.62514e-05 9.70207e-07
0.00560695 0.00144732 -0.000630695
-0.00102433 -7.62366e-05 3.48609e-05
-0.000627988 -6.73051e-05 6.32564e-05
-0.000927832 -0.000106577 6.50158e-05
-8.44185e-05 -1.05034e-05 9.16268e-06
-0.000843189 -1.58745e-05 -9.18794e-05
-0.000113688 -1.54037e-05 1.28109e-05
-0.00060185 -6.16932e-05 4.01864e-05
-0.00115049 -0.000139008 -5.88953e-06
-0.000731946 -9.56796e-05 -7.12014e-06
-0.00108423 -0.000112367 9.74854e-05
-8.85681e-05 -6.53804e-06 5.72521e-06
-0.000483123 -6.41828e-05 2.06659e-05
-0.00101913 -0.000154753 8.13036e-07
-0.000901348 -0.000121368 3.39607e-05
0.0025542 0.00105289 0.00315048
-0.000387246 -6.10168e-05 8.47719e-06
-0.000385776 -7.01894e-05 4.64084e-05
-0.000363144 -4.54688e-06 -1.26502e-05
-0.00120588 -3.32611e-05 3.33048e-06
-0.000516143 -9.17313e-05 -2.80653e-05
-0.000356327 -3.44259e-05 1.74478e-05
-0.000753942 -0.000135597 -5.22019e-05
-0.000920519 -9.08447e-05 -1.10144e-05
-0.000174112 -1.72981e-05 4.15662e-05
0.00224055 -0.000939896 -0.000886265
-7.58469e-05 -4.95475e-06 9.56033e-06
-0.000320691 1.92334e-08 -2.43044e-05
-0.000448329 -9.55927e-05 4.25384e-06
0.00555558 -0.00245066 -0.00169941
-6.22706e-05 -2.69461e-06 4.79299e-06
-0.000753281 -0.000123958 3.57248e-05
-0.000258272 1.62099e-06 -2.90002e-05
-0.000405494 1.51841e-05 -5.91204e-05
-0.000392052 -4.34244e-05 2.29184e-05
-0.00039981 -4.49656e-05 8.60615e-06
0.00914802 0.00423251 -0.00236572
-6.30163e-05 -2.51416e-06 1.12595e-05
0.00503679 -0.000348954 0.00152532
-0.000349943 -4.36313e-05 1.39136e-05
-0.000351451 1.41045e-06 -3.71857e-06
-0.00105744 -3.38871e-05 7.95053e-06
-0.000613123 -5.80443e-05 -2.34491e-05
-0.000291487 -4.08867e-05 4.33872e-06
-0.000263539 -3.68632e-05 -8.83738e-07
-0.00040828 -7.08284e-05 -1.54366e-05
0.00379414 -0.00156864 0.00156864
-0.000619534 -4.4976e-05 5.09721e-05
-0.000239072 -2.13517e-05 2.65928e-05
-0.00182132 -0.000137531 4.57347e-05
-0.000559054 -1.93726e-05 1.25443e-05
-0.000125138 -1.30657e-05 8.52081e-06
-0.000208414 -3.11984e-05 8.86875e-06
-7.18214e-05 -4.5121e-06 1.05365e-05
0.00383604 -0.00253387 -0.00013714
-0.000230585 -1.06146e-05 -1.71715e-05
-0.000361373 -4.29813e-05 -1.64173e-05
-0.000267561 1.24302e-05 -2.50763e-05
0.000451565 0.00178352 -0.000552515
0.0148497 -0.00603122 -0.0100686
-0.000221223 -2.12793e-05 3.77493e-06
-0.000533113 -7.85303e-05 -3.83087e-05
-0.000144609 -9.45338e-06 2.37681e-05
-0.000138042 -1.14155e-05 1.86762e-05
-0.000343772 -3.67567e-05 2.42425e-05
-0.000151622 -1.3789e-05 3.24821e-06
-0.000348815 5.26173e-06 -4.68532e-05
-0.000259185 1.33061e-05 -2.84539e-05
-0.000477274 -5.94999e-05 4.04952e-05
-0.00020463 -1.80886e-05 1.39326e-05
-0.000363509 -4.65196e-05 7.77074e-06
-0.000252963 -3.31055e-05 -7.56194e-06
-0.000222743 -3.61237e-05 1.22228e-05
-0.000770008 -6.2105e-05 1.06912e-05
-0.000314162 -3.71658e-05 1.1927e-05
-0.000232513 -5.30929e-05 1.06109e-05
-0.000295088 -3.31989e-05 1.78226e-05
-0.000120592 -1.93566e-05 5.83178e-06
-0.000258527 2.55475e-06 -2.58471e-05
-0.000147482 -3.77884e-06 1.76957e-05
-0.000498921 2.21921e-06 -1.23158e-06
0.00358672 0.00370872 0.00130846
-0.000517735 -7.17611e-05 -4.12897e-05
-0.000518004 -4.20493e-05 4.18904e-05
-0.00057852 -5.32008e-05 3.0556e-05
0.00377959 -0.000331034 -0.00144221
-9.42592e-05 -6.17802e-06 7.26211e-06
-0.000286838 -3.44996e-05 8.51249e-06
-0.000462617 -6.82445e-05 -3.67606e-06
-0.000296201 -3.54931e-05 -1.2155e-05
-0.000353626 -3.92149e-05 1.17478e-06
-0.000686931 -8.50156e-05 3.85032e-05
-0.000276194 -3.85741e-05 -3.36105e-06
-0.000330051 -1.47332e-05 -1.35073e-05
-0.000167599 -1.7993e-05 1.62238e-05
-0.000255491 -2.90258e-05 1.79962e-05
-0.000116566 -1.11762e-05 2.02177e-05
-0.000140172 -1.35433e-05 3.16377e-05
-0.000370846 -1.85728e-05 2.2852e-05
-0.000456199 -7.86311e-05 8.5378e-06
-0.00036734 -1.21233e-05 -5.20161e-06
-0.000296317 -4.08176e-05 2.04697e-05
-0.000443738 -3.91187e-05 -2.47907e-05
0.0040212 3.08517e-05 -0.00144327
-9.61596e-05 -6.18783e-06 1.50988e-05
0.00378389 -0.00110325 0.00138766
-0.000174464 -3.94356e-05 3.42705e-06
-0.000265119 -5.51341e-05 -1.20143e-05
-0.000712841 -9.0096e-05 3.83519e-05
-0.000309196 -3.37791e-05 2.36724e-05
-0.000353581 -3.76254e-05 3.91658e-05
-0.000283707 -2.493e-05 3.62821e-05
-5.14306e-05 -4.2138e-06 3.68169e-06
-0.000334458 -3.35947e-05 2.46371e-05
-0.000347577 -2.9883e-05 -2.32569e-05
-0.00043535 -3.7937e-05 -2.15867e-05
-0.00028651 -3.97742e-05 1.54144e-05
-0.000169345 -1.4977e-05 2.65053e-05
-0.000322308 -4.81868e-05 -1.61896e-05
-0.000384057 -8.45226e-05 4.72002e-05
-0.000266401 -3.43509e-05 2.20509e-05
-0.000525696 -3.68718e-05 3.72499e-05
-0.00023977 -1.88232e-05 8.33048e-06
-0.00045353 -2.46515e-05 -2.74531e-05
-0.000217312 -3.58811e-05 -4.81389e-06
-0.00044458 -4.61871e-05 3.73578e-05
-0.000165687 -2.3841e-05 2.22494e-05
0.0040467 -0.0018335 -0.0023378
-0.000199888 -2.26765e-05 1.15388e-05
-0.000251126 -1.81409e-05 2.70302e-05
-0.000603719 -9.67828e-05 4.82555e-05
-0.000210853 -3.00142e-05 9.23582e-06
-0.000213439 -1.87706e-05 3.32489e-05
-0.000548663 -0.000118402 6.14994e-05
0.00723476 0.0111865 -0.00168104
0.00521075 -0.00447551 0.00533162
-0.000224682 -3.44703e-05 1.61806e-05
-0.000698876 -9.48358e-05 3.40767e-05
-0.000182675 -1.89732e-05 1.64335e-05
-0.000365558 -2.36646e-06 -1.89804e-05
-0.000569087 -9.76343e-05 7.2039e-05
-0.00030308 -2.94755e-05 1.60763e-05
-0.000437689 -4.23927e-06 1.72377e-05
-0.00332909 0.00112867 -0.00341995
-0.000370292 -2.21582e-05 2.09268e-05
-6.41215e-05 -7.37966e-06 8.45987e-06
-0.00307876 0.00313815 -0.00103932
-8.31224e-05 -2.04447e-06 -4.4954e-07
0.00605784 0.0059419 -0.000441362
-0.000424833 -4.56868e-06 1.95188e-05
-0.000243438 -2.74997e-06 1.88041e-05
-0.00136283 -0.000101431 0.00189892
-0.000270694 -3.07482e-05 2.48204e-05
-7.89167e-05 -0.000787681 -0.00112904
-0.000126737 -1.60011e-05 3.23224e-06
-0.000122936 1.89085e-06 -1.95095e-05
-0.000226364 -3.7361e-05 1.42646e-05
-0.000402857 -4.96695e-05 -1.25387e-05
-0.000100497 -9.1325e-06 1.04551e-05
-0.00088896 -0.00100581 0.000471086
-0.000558614 -9.4201e-05 6.75493e-05
-8.48274e-05 -3.8362e-06 7.39244e-06
-0.000116943 -1.61907e-05 -4.71013e-06
-0.00111638 -0.00283802 -0.000211323
-0.000331055 -3.54802e-05 1.57972e-06
-0.000367087 -1.39516e-05 1.5648e-05
-0.000126909 -1.70462e-05 -8.53112e-06
-0.000125646 -5.84081e-06 1.1143e-05
-6.48883e-05 -9.22165e-06 7.12281e-06
0.00949188 0.00144454 0.00133422
-0.000578495 -4.74194e-05 0.00198382
-0.00309545 -0.00255 0.00351563
-0.000315629 -2.69735e-05 1.55981e-05
-0.000118374 -6.14843e-06 -1.05168e-05
-0.000185067 -3.08952e-05 4.3661e-06
-0.000110919 -6.61166e-08 -1.70436e-05
-0.00151264 0.00381963 -0.00222193
0.0056471 0.000832487 0.000741137
-5.16649e-05 -1.22907e-06 6.66483e-06
-8.28432e-05 -3.78968e-06 6.57879e-06
-0.000272838 9.80705e-06 -4.06384e-05
-7.33892e-05 -5.49808e-06 2.94526e-06
0.00804641 -0.00263893 0.00030161
-0.000289067 1.80123e-05 -4.91853e-05
-9.36233e-05 -1.69515e-05 -1.62954e-06
-0.000414941 -6.82068e-05 2.00199e-05
-4.54474e-05 -1.51247e-06 5.50591e-06