# vtk DataFile Version 4.2
vtk output
ASCII
DATASET UNSTRUCTURED_GRID

POINTS 343 double
0.00112266 0.00419489 9.16008e-08
0.00217138 0.00498244 0.0021754
0 0.00419538 0.00112517
0.00193011 0.00195438 0.00194219
0.00516908 0.00240618 0.00503252
0.00517191 0.00382942 0.00639782
0.00762286 0.00477407 0.00499955
0.00622507 0.00484951 0.00369222
0.00683569 0.00328746 0.00691445
0.00499128 0.00499198 0.00500008
0.00417931 0.0011176 0.00999932
0.00528008 0.00207951 0.00790437
0.00418916 -7.99231e-06 0.00831736
0.00201216 0.00200241 0.00803329
0.00428534 0.0025324 0.00999937
0.00695693 0.00644568 0.00694739
0.00641432 0.00618148 0.00518348
0.00226049 0.00218453 0.00514616
0 0.00143586 0.00417514
0.00159463 0.00346612 0.00403705
0.00683728 0.00319277 0.00316203
0.0077449 0.00221151 0.00506456
0 0.00270918 0.00154168
0.00415838 0.00142797 4.40453e-07
0.00500778 0.00218712 0.00219838
0.00396283 0.00352633 0.00160338
0.00134522 -6.24544e-07 0.00406004
0.004183 -8.32989e-06 0.00168857
0.00262697 0.00695152 2.4133e-07
0.00193873 0.00805269 0.00194495
0.00408846 0.00624775 0.00164538
0.00800366 0.00798442 0.0079978
0.00796455 0.00481406 0.00802283
0.00838882 0.00607788 0.00594855
0.0100008 0.0088231 0.0041927
0.00757809 0.00763425 0.0049642
0.00856907 0.00997815 0.00416711
0.00797841 0.00796953 0.00201659
0.00353578 0.00303625 0.00695964
0.00443698 0.00366146 0.00832422
0.00389186 0.0016001 0.00596917
0.00500603 0.00766767 0.00767691
0.00198982 0.00800781 0.00798966
0.00282816 0.0099971 0.00712721
0.00391736 0.00839912 0.00595795
0 0.00695361 0.00262895
0.00164669 0.00623921 0.00408792
0 0.0040177 0.00850214
0.00231509 0.00498562 0.00766155
0.00143324 0.00417444 0.00999996
0.00717507 0.0071168 0.00999823
0.00611822 0.00596983 0.00841766
0.00205221 0.00794137 0.00474188
0.00304404 0.00694273 0.00646778
0.00158704 0.00607831 0.00592604
0.00998913 0.00578127 0.00831531
0 0.00718191 0.00711644
0.00158489 0.00577339 6.83816e-08
0 0.00577432 0.00158701
0.00999459 0.007155 0.00711477
0.00286709 0.00334911 0.00999978
0.00996956 0.00140643 0.00417484
0.00803622 0.00194113 0.0019796
0.00838939 0.00350026 0.00399882
0.00372548 0.00164761 0.00412848
0.00150969 0.00999967 0.00581503
0.00280898 -3.83778e-06 0.00712779
0.00610936 0.00417051 0.00837614
0.00999415 0.00724704 0.00419502
0.00852751 -2.41296e-05 0.00416801
0.00334203 0.00286941 2.96327e-07
0.00269969 0.00153863 0.0099998
0.00281801 -4.22635e-06 0.00283213
0.00479786 0.00519356 0.0075544
0.00315825 0.00314606 0.00316747
0 0.00849157 0.00581511
0.00486489 0.00366894 0.00378645
0.00153718 0.00270863 5.28854e-08
0.00580018 0.00831507 0.00999858
0.00598596 0.00998836 0.00850516
0.00421489 0.0099936 0.00831744
0.00401819 0.00849787 0.00999905
0.00999973 0.00846443 0.00581375
0.00314796 0.00683336 0.00315099
0 0.00748929 0.00137438
0.00137374 0.00748898 2.37179e-08
0 0.00287343 0.00335182
0 0.00580816 0.00831736
0 0.00429792 0.00253898
0.00253399 0.00429578 2.48084e-07
0.00143389 0.00581915 0.00999996
0.00517583 0.00646797 0.00640026
0.00360348 0.00650914 0.00823391
0.0069314 0.00261172 0.00999853
0.00799849 0.00193803 0.00803449
0.00694122 -1.79127e-05 0.00308232
0.0060004 0.00165142 0.00361308
0.00997532 0.00284493 0.00335174
0 0.00140616 0.00256446
0.00637429 0.00821568 0.00642056
0.00579665 0.00142229 8.21147e-07
0.00602241 0.00354003 0.00160365
0.00315795 0.00999622 0.00582521
0.00856414 0.00997834 0.00583221
0.00255408 0.00140279 2.71574e-07
0.00594953 -1.42229e-05 0.00149502
0.00628168 0.00827572 0.00361727
0.0085227 -2.39421e-05 0.00583279
0.00618596 0.00165949 0.006365
0.00140219 0.00256404 0.01
0.0071128 0.00716652 3.81034e-07
0.00516638 0.00768161 0.0021691
0.00593735 0.00608299 0.0016022
0 0.00686719 0.00578184
0.00996898 0.00137651 0.0025647
0.00177225 0.00360984 0.00640789
0.00999893 0.00845942 0.00262335
0.00840422 0.00616881 0.00413248
0.00598495 0.00998766 0.00149396
0.00694073 -1.76317e-05 0.00692594
0.00997003 0.00140625 0.00581875
0.00837915 0.00355221 0.0060602
0.00150171 -8.0501e-07 0.00581521
0 0.0013659 0.00748679
0.00136354 -6.83879e-07 0.00752891
0.00999286 0.00684021 0.00578057
0.00581697 0.00848034 3.22357e-07
0 0.0075208 0.00859127
0.00136522 0.00748641 0.00999989
0.00423195 0.00819987 0.00362832
0.00859743 0.0099782 0.00751065
0.0100009 0.00860323 0.00752445
0.00575409 0.00157469 0.00999882
0.00724502 0.00417225 0.00999839
0 0.0057735 0.00666667
0.00137057 0.0099996 0.00752893
0 0.00863025 0.00752641
0.00855372 -2.45798e-05 0.00250788
0.00999239 0.00692631 0.00262869
0.00845155 0.00632128 0.00216298
0.00850015 0.00580333 0.00999796
0.00746445 0.00135542 0.00999827
0.00855588 -2.41875e-05 0.00751078
0.00997018 0.00133671 0.00748517
0 0.00143551 0.00581971
0.00595098 -1.37639e-05 0.00850504
0.00419267 -8.39272e-06 0.00340019
0.00792073 0.00468872 0.00203473
0.00998107 0.00427008 0.00253897
0.00423263 0.00999335 0.00666623
0.00283751 0.00999714 0.00283199
0.00130693 -6.80136e-07 0.00241834
0 0.00727418 0.00419576
0.00998844 0.00574653 0.00666514
0.00697943 0.00998417 0.00308141
0.00750923 0.00862008 0.00999813
0 0.00574334 0.00336387
0 0.0043297 0.00416652
0.00686199 0.00577042 0.00999851
0.00997691 0.00299409 0.00691383
0.00420527 -8.19223e-06 0.00666658
0.00248095 0.00999753 0.0086114
0.00745943 0.00134631 8.65872e-07
0.00577056 0.00665687 0.00999864
0.0099965 0.007494 0.00858901
0.00860603 0.00753273 0.00999786
0.00689534 0.0030062 8.76337e-07
0.00335957 0.00574025 4.11723e-07
0.00752788 0.00861273 2.36302e-07
0.00752141 0.00998178 0.00138733
0.00577819 0.00685681 3.97554e-07
0.00696901 0.00635636 0.00303341
0.00748191 -2.0442e-05 0.00138844
0.0028803 0.00499699 0.00999969
0.00432537 0.00582829 0.00999915
0.00432105 0.00416112 0.00999923
0.00752301 0.00998239 0.00861449
0.00246441 -3.25432e-06 0.00861159
0.00998733 0.00571605 0.00336355
0 0.00302218 0.00691532
0.00998152 0.0039903 0.00850011
0.00848341 0.00399572 7.16847e-07
0.00997419 0.0026803 0.0015421
0 0.00244495 0.00857025
0.0024462 0.00856804 0.00999955
0.00748369 -1.9947e-05 0.00861434
0.00846504 0.00260196 0.00999797
0.00883501 0.00417135 0.00999786
0.00567674 0.00998903 0.00583282
0.00518568 0.00757525 0.00503217
0.0056488 0.00998897 0.00421497
0.00697884 0.00998452 0.00692559
0.00302075 0.0069132 0.00999946
0.00415774 0.00432428 6.00629e-07
0.002821 -4.37819e-06 0.00440484
0.0031371 -4.89157e-06 0.00582563
0.00998032 0.00416726 0.00112555
0.00363889 0.0083329 0.00158846
0.00998165 0.00430203 0.00416606
0.00665787 0.00575986 6.56363e-07
0.00859546 0.00997779 0.00250676
0 0.00848692 0.00262374
0.00135239 0.00999964 0.00405988
0 0.00885053 0.00419359
0.00419621 0.0088439 3.348e-07
0.00421005 0.00999314 0.00168785
0.00499029 0.00478393 0.00237915
0.00720497 0.00450535 7.70045e-07
0.00561548 -1.30593e-05 0.00421579
0.00564349 -1.29961e-05 0.00583326
0.00131394 0.00999965 0.00241807
0.00854489 0.00242183 8.2446e-07
0.0099833 0.00449443 0.00721792
0.00712185 0.00998385 0.00499961
0.00572937 0.00335343 0.00999886
0.00244541 -3.40885e-06 0.00135683
0.00997492 0.00241648 0.00856829
0.00239187 0.00478969 0.00499998
0.00582045 0.00431911 7.98299e-07
0.00830644 0.00578761 4.82944e-07
0.00548577 0.00998984 0.00721981
0.00998207 0.00430262 0.00583222
0.00540885 0.00998962 0.0027755
0.00708325 -1.82495e-05 0.00500034
0.00283992 0.00999715 0.00440439
0 0.00452174 0.00721958
0.00452027 0.00721413 0.00999901
0.00545312 -1.21509e-05 0.00721976
0.00359824 0.00507024 0.00359664
0.00425744 0.00999328 0.005008
0.00422934 -8.37661e-06 0.00500866
0.00366633 0.00521322 0.00617455
0 0.005744 0.00499998
0 0.00433013 0.00583333
0.00499344 0.00573667 6.51899e-07
0.00498091 0.00633186 0.00355389
0.0053761 -1.23331e-05 0.00277645
0.00998781 0.0057169 0.00499907
0.00368822 0.00640416 0.00484392
0.00573556 0.00499057 0.0099988
0.00998706 0.0057468 0.00158715
0 0.00666667 0
0.00858719 0.00749929 2.03685e-07
0.00331615 -6.4884e-06 1.01048e-06
0 0.01 0.00666667
0.00500701 0.00999101 0.00999907
0 0.00288419 0.00499914
0.00999439 0.00746186 0.00137441
0.00999062 0.00663912 1.60577e-07
0 0.005 0.01
0.00498353 0.00287518 6.42958e-07
0 0.005 0
0.00996327 -3.04258e-05 0.00333348
0.0100065 0.0099722 0.00666487
0.00419417 0.00726866 4.09075e-07
0.00997573 0.00285592 0.00499845
0.00497563 -1.16204e-05 1.18247e-06
0 0 0.00666667
0.00379034 0.0036124 0.00522636
0.00497739 -1.10811e-05 0.00999867
0.0099642 -3.01421e-05 0.00666538
0 0 0.005
0.00878629 0.0099768 0.00121995
0.00999988 0.00875209 0.00121997
0.0099637 -3.02307e-05 0.00499946
0.00998354 0.00497199 3.97811e-07
0.00121559 0.00121921 -1.69765e-09
0 0.00122008 0.00122008
0 0.00333333 0.01
0 0.00666667 0.01
0.00878096 0.00875713 1.42649e-08
0.0100056 0.00997184 0.00333252
0.00422058 0.00999323 0.00339954
0.00999324 0.00663998 0.00999757
0 0.00333333 0
0 0.00122008 0.00877992
0.00121476 -8.72381e-07 0.00877969
0.001216 0.00121949 0.0100001
0.00878814 0.00997736 0.00877808
0.00122009 0.00877942 0.00999989
0 0.00877992 0.00877992
0.010002 0.00875282 0.00877764
0.0066736 0.00998487 -7.58719e-08
0.0099678 0.0011901 0.00122073
0.00122116 0.00999943 0.00878012
0.00878354 0.0087579 0.00999785
0.00998613 0.00497294 0.0099976
0 0 0.00333333
0.00663611 -1.73295e-05 1.33217e-06
0.00874436 -2.56246e-05 0.00122117
0.0012059 -8.97845e-07 0.00121213
0 0.00877992 0.00122008
0.00122024 0.00877939 1.10491e-07
0.00121261 0.00999948 0.00121143
0.00996985 0.00119071 0.00877776
0.00875174 0.00119571 0.0099978
0.00663848 -1.68001e-05 0.00999802
0.00874912 0.00119507 9.39368e-07
0.00874642 -2.50923e-05 0.00877783
0.00997654 0.00330469 5.89057e-07
0.00333849 0.00999524 0.00999973
0.00246255 0.00999772 0.0013564
0.00667544 0.00998557 0.00999867
0.00997906 0.00330564 0.00999759
0 0.01 0.005
0.00262474 0.0084845 2.56814e-07
0.010006 0.00997203 0.00499877
0 0.01 0.00333333
0 0.00166667 0
0.00996284 -3.06924e-05 0.0016674
0 0.00166667 0.01
0 0.00833333 0
0.00999778 0.0083055 -7.92491e-08
0.00996468 -3.02175e-05 0.00833118
0.0100052 0.00997162 0.00166632
0.0100069 0.00997223 0.00833118
0.00166918 0.00999842 0.00999994
0 0.01 0.00833333
0.00833985 0.00997841 -1.12822e-07
0.00829854 -2.41055e-05 1.18262e-06
0.00830116 -2.35505e-05 0.00999766
0.00834208 0.00997898 0.00999808
0 0 0.00833333
0.0100004 0.00830636 0.00999752
0.00165776 -2.24598e-06 3.06152e-07
0 0 0.00166667
0.00333861 0.00999543 1.8917e-07
0.00997205 0.00163747 0.00999753
0.00996946 0.0016368 7.27815e-07
0.00165867 -1.85091e-06 0.01
0.00166911 0.00999874 1.05815e-07
0 0.01 0.00166667
0.0100075 0.00997225 0.00999761
0 0 0.01
0.0100049 0.00997144 -3.63426e-07
0.00996509 -3.03278e-05 0.00999723
0 0.01 0.01
0.00996243 -3.092e-05 9.97154e-07
0 0.01 0
0 0 0
0.00500638 0.00999049 9.85328e-08
0.00331746 -5.83813e-06 0.00999919
0 0.00833333 0.01

CELLS 343 686
1 0
1 1
1 2
1 3
1 4
1 5
1 6
1 7
1 8
1 9
1 10
1 11
1 12
1 13
1 14
1 15
1 16
1 17
1 18
1 19
1 20
1 21
1 22
1 23
1 24
1 25
1 26
1 27
1 28
1 29
1 30
1 31
1 32
1 33
1 34
1 35
1 36
1 37
1 38
1 39
1 40
1 41
1 42
1 43
1 44
1 45
1 46
1 47
1 48
1 49
1 50
1 51
1 52
1 53
1 54
1 55
1 56
1 57
1 58
1 59
1 60
1 61
1 62
1 63
1 64
1 65
1 66
1 67
1 68
1 69
1 70
1 71
1 72
1 73
1 74
1 75
1 76
1 77
1 78
1 79
1 80
1 81
1 82
1 83
1 84
1 85
1 86
1 87
1 88
1 89
1 90
1 91
1 92
1 93
1 94
1 95
1 96
1 97
1 98
1 99
1 100
1 101
1 102
1 103
1 104
1 105
1 106
1 107
1 108
1 109
1 110
1 111
1 112
1 113
1 114
1 115
1 116
1 117
1 118
1 119
1 120
1 121
1 122
1 123
1 124
1 125
1 126
1 127
1 128
1 129
1 130
1 131
1 132
1 133
1 134
1 135
1 136
1 137
1 138
1 139
1 140
1 141
1 142
1 143
1 144
1 145
1 146
1 147
1 148
1 149
1 150
1 151
1 152
1 153
1 154
1 155
1 156
1 157
1 158
1 159
1 160
1 161
1 162
1 163
1 164
1 165
1 166
1 167
1 168
1 169
1 170
1 171
1 172
1 173
1 174
1 175
1 176
1 177
1 178
1 179
1 180
1 181
1 182
1 183
1 184
1 185
1 186
1 187
1 188
1 189
1 190
1 191
1 192
1 193
1 194
1 195
1 196
1 197
1 198
1 199
1 200
1 201
1 202
1 203
1 204
1 205
1 206
1 207
1 208
1 209
1 210
1 211
1 212
1 213
1 214
1 215
1 216
1 217
1 218
1 219
1 220
1 221
1 222
1 223
1 224
1 225
1 226
1 227
1 228
1 229
1 230
1 231
1 232
1 233
1 234
1 235
1 236
1 237
1 238
1 239
1 240
1 241
1 242
1 243
1 244
1 245
1 246
1 247
1 248
1 249
1 250
1 251
1 252
1 253
1 254
1 255
1 256
1 257
1 258
1 259
1 260
1 261
1 262
1 263
1 264
1 265
1 266
1 267
1 268
1 269
1 270
1 271
1 272
1 273
1 274
1 275
1 276
1 277
1 278
1 279
1 280
1 281
1 282
1 283
1 284
1 285
1 286
1 287
1 288
1 289
1 290
1 291
1 292
1 293
1 294
1 295
1 296
1 297
1 298
1 299
1 300
1 301
1 302
1 303
1 304
1 305
1 306
1 307
1 308
1 309
1 310
1 311
1 312
1 313
1 314
1 315
1 316
1 317
1 318
1 319
1 320
1 321
1 322
1 323
1 324
1 325
1 326
1 327
1 328
1 329
1 330
1 331
1 332
1 333
1 334
1 335
1 336
1 337
1 338
1 339
1 340
1 341
1 342

CELL_TYPES 343
1
1
1
1
1
1
1
1
1
1
1
1
1
1
1
1
1
1
1
1
1
1
1
1
1
1
1
1
1
1
1
1
1
1
1
1
1
1
1
1
1
1
1
1
1
1
1
1
1
1
1
1
1
1
1
1
1
1
1
1
1
1
1
1
1
1
1
1
1
1
1
1
1
1
1
1
1
1
1
1
1
1
1
1
1
1
1
1
1
1
1
1
1
1
1
1
1
1
1
1
1
1
1
1
1
1
1
1
1
1
1
1
1
1
1
1
1
1
1
1
1
1
1
1
1
1
1
1
1
1
1
1
1
1
1
1
1
1
1
1
1
1
1
1
1
1
1
1
1
1
1
1
1
1
1
1
1
1
1
1
1
1
1
1
1
1
1
1
1
1
1
1
1
1
1
1
1
1
1
1
1
1
1
1
1
1
1
1
1
1
1
1
1
1
1
1
1
1
1
1
1
1
1
1
1
1
1
1
1
1
1
1
1
1
1
1
1
1
1
1
1
1
1
1
1
1
1
1
1
1
1
1
1
1
1
1
1
1
1
1
1
1
1
1
1
1
1
1
1
1
1
1
1
1
1
1
1
1
1
1
1
1
1
1
1
1
1
1
1
1
1
1
1
1
1
1
1
1
1
1
1
1
1
1
1
1
1
1
1
1
1
1
1
1
1
1
1
1
1
1
1
1
1
1
1
1
1
1
1
1
1
1
1
1
1
1
1
1
1
1
1
1
1
1
1
1
1
1
1
1
1
1
1
1
1
1
1
1
1
1
1
1
1

POINT_DATA 343
FIELD FieldData 8

NodeID_(#) 1 343 int
0
1
2
3
4
5
6
7
8
9
10
11
12
13
14
15
16
17
18
19
20
21
22
23
24
25
26
27
28
29
30
31
32
33
34
35
36
37
38
39
40
41
42
43
44
45
46
47
48
49
50
51
52
53
54
55
56
57
58
59
60
61
62
63
64
65
66
67
68
69
70
71
72
73
74
75
76
77
78
79
80
81
82
83
84
85
86
87
88
89
90
91
92
93
94
95
96
97
98
99
100
101
102
103
104
105
106
107
108
109
110
111
112
113
114
115
116
117
118
119
120
121
122
123
124
125
126
127
128
129
130
131
132
133
134
135
136
137
138
139
140
141
142
143
144
145
146
147
148
149
150
151
152
153
154
155
156
157
158
159
160
161
162
163
164
165
166
167
168
169
170
171
172
173
174
175
176
177
178
179
180
181
182
183
184
185
186
187
188
189
190
191
192
193
194
195
196
197
198
199
200
201
202
203
204
205
206
207
208
209
210
211
212
213
214
215
216
217
218
219
220
221
222
223
224
225
226
227
228
229
230
231
232
233
234
235
236
237
238
239
240
241
242
243
244
245
246
247
248
249
250
251
252
253
254
255
256
257
258
259
260
261
262
263
264
265
266
267
268
269
270
271
272
273
274
275
276
277
278
279
280
281
282
283
284
285
286
287
288
289
290
291
292
293
294
295
296
297
298
299
300
301
302
303
304
305
306
307
308
309
310
311
312
313
314
315
316
317
318
319
320
321
322
323
324
325
326
327
328
329
330
331
332
333
334
335
336
337
338
339
340
341
342

Component_(#) 1 343 int
0
0
0
0
0
0
0
0
0
0
0
0
0
0
0
0
0
0
0
0
0
0
0
0
0
0
0
0
0
0
0
0
0
0
0
0
0
0
0
0
0
0
0
0
0
0
0
0
0
0
0
0
0
0
0
0
0
0
0
0
0
0
0
0
0
0
0
0
0
0
0
0
0
0
0
0
0
0
0
0
0
0
0
0
0
0
0
0
0
0
0
0
0
0
0
0
0
0
0
0
0
0
0
0
0
0
0
0
0
0
0
0
0
0
0
0
0
0
0
0
0
0
0
0
0
0
0
0
0
0
0
0
0
0
0
0
0
0
0
0
0
0
0
0
0
0
0
0
0
0
0
0
0
0
0
0
0
0
0
0
0
0
0
0
0
0
0
0
0
0
0
0
0
0
0
0
0
0
0
0
0
0
0
0
0
0
0
0
0
0
0
0
0
0
0
0
0
0
0
0
0
0
0
0
0
0
0
0
0
0
0
0
0
0
0
0
0
0
0
0
0
0
0
0
0
0
0
0
0
0
0
0
0
0
0
0
0
0
0
0
0
0
0
0
0
0
0
0
0
0
0
0
0
0
0
0
0
0
0
0
0
0
0
0
0
0
0
0
0
0
0
0
0
0
0
0
0
0
0
0
0
0
0
0
0
0
0
0
0
0
0
0
0
0
0
0
0
0
0
0
0
0
0
0
0
0
0
0
0
0
0
0
0
0
0
0
0
0
0
0
0
0
0
0
0
0
0
0
0
0
0
0
0
0
0
0
0
0
0
0
0
0
0

NodalMass_(kg) 1 343 double
3.15563e-06
1.41304e-05
2.20912e-06
1.71484e-05
8.42e-06
9.09306e-06
9.93033e-06
7.52198e-06
6.81096e-06
5.58223e-06
3.10888e-06
1.07575e-05
4.87011e-06
1.64955e-05
3.0246e-06
8.05984e-06
6.703e-06
1.0877e-05
4.18978e-06
8.16106e-06
6.14143e-06
1.17902e-05
2.23114e-06
4.25176e-06
1.09915e-05
7.41467e-06
4.21871e-06
3.92484e-06
3.08766e-06
1.31268e-05
7.72627e-06
1.65404e-05
1.19037e-05
7.29666e-06
3.81683e-06
1.11001e-05
3.81317e-06
1.39137e-05
6.37414e-06
8.00975e-06
7.6712e-06
1.18847e-05
1.6399e-05
2.78633e-06
8.93599e-06
2.58087e-06
7.57362e-06
4.23241e-06
1.31286e-05
3.80168e-06
2.7746e-06
7.16776e-06
1.21307e-05
5.11765e-06
8.19728e-06
4.58094e-06
2.79503e-06
3.26126e-06
4.12443e-06
2.11915e-06
3.35177e-06
3.61669e-06
1.56838e-05
7.33679e-06
8.24695e-06
5.00369e-06
2.82625e-06
7.20276e-06
3.26815e-06
4.18751e-06
2.02785e-06
2.42152e-06
3.11835e-06
5.97459e-06
5.87101e-06
4.09374e-06
5.45463e-06
2.28825e-06
4.49759e-06
4.38192e-06
4.50892e-06
4.39234e-06
4.27273e-06
5.32031e-06
1.53201e-06
2.38869e-06
2.02885e-06
4.38798e-06
3.17972e-06
3.14298e-06
4.61567e-06
5.87645e-06
8.18088e-06
2.48341e-06
1.53815e-05
3.49683e-06
7.35227e-06
2.01314e-06
2.0408e-06
7.98183e-06
4.41293e-06
7.1389e-06
1.20123e-06
5.03343e-06
1.61257e-06
4.12601e-06
8.73748e-06
4.37849e-06
7.97173e-06
2.13557e-06
3.38137e-06
9.48623e-06
7.40262e-06
1.80226e-06
2.10222e-06
7.98889e-06
1.87983e-06
7.44814e-06
4.19782e-06
2.37156e-06
4.31705e-06
6.06441e-06
4.30905e-06
2.16843e-06
1.8986e-06
1.81294e-06
3.89762e-06
2.44299e-06
1.65628e-06
8.01374e-06
1.64513e-06
2.3931e-06
3.01363e-06
2.99431e-06
1.36541e-06
1.87293e-06
2.09622e-06
1.94762e-06
1.87618e-06
6.37913e-06
4.58628e-06
2.02767e-06
1.61999e-06
2.41284e-06
3.8865e-06
4.44973e-06
2.29839e-06
1.17349e-05
3.11811e-06
1.354e-06
3.45063e-06
1.81846e-06
2.9382e-06
1.37381e-06
2.41464e-06
2.10451e-06
2.63927e-06
2.14166e-06
1.7943e-06
3.19976e-06
1.36989e-06
2.43489e-06
2.08158e-06
1.3601e-06
2.17203e-06
1.89924e-06
3.16996e-06
2.6119e-06
2.37677e-06
1.60225e-06
1.90684e-06
5.49206e-06
1.87878e-06
3.14313e-06
2.97301e-06
1.18454e-06
1.89263e-06
2.04166e-06
2.73572e-06
2.42405e-06
3.23083e-06
3.19752e-06
3.2142e-06
1.94492e-06
1.61196e-06
1.86876e-06
3.22435e-06
2.1114e-06
2.96917e-06
6.15288e-06
2.3097e-06
2.39729e-06
2.38029e-06
2.64508e-06
1.66557e-06
1.82377e-06
2.06583e-06
5.73271e-06
2.08467e-06
2.18324e-06
2.43522e-06
3.1188e-06
3.17316e-06
2.05447e-06
1.9592e-06
3.05718e-06
6.44327e-06
2.08796e-06
2.72615e-06
2.15709e-06
1.86812e-06
2.0028e-06
2.10999e-06
2.88994e-06
2.3222e-06
2.3979e-06
1.97629e-06
6.4127e-06
2.16225e-06
3.29198e-06
2.10223e-06
2.66566e-06
1.94415e-06
2.91865e-06
2.58116e-06
2.11703e-06
2.09534e-06
1.91719e-06
7.06046e-06
2.25203e-06
2.06378e-06
6.28159e-06
2.12147e-06
2.90924e-06
2.12921e-06
6.4487e-06
1.41701e-06
2.0682e-06
6.58062e-06
2.52584e-06
2.39732e-06
7.42191e-07
2.22368e-06
7.06751e-07
7.00657e-07
8.93749e-07
2.53536e-06
2.26535e-06
1.33607e-06
7.84725e-07
2.32303e-06
6.06694e-07
6.68276e-07
6.84307e-07
2.51242e-06
2.31629e-06
7.8367e-07
6.80839e-07
6.22692e-06
6.7471e-07
6.65305e-07
7.01158e-07
1.8232e-06
1.90695e-06
6.86722e-07
7.04792e-07
1.86445e-06
2.28572e-06
6.8045e-07
7.16005e-07
1.82373e-06
6.01079e-07
2.02791e-06
7.4579e-07
5.74423e-07
1.80052e-06
1.454e-06
2.2702e-06
1.80636e-06
2.15356e-06
1.79089e-06
1.79456e-06
6.8231e-07
2.24737e-06
1.45239e-06
1.79556e-06
6.97875e-07
6.24265e-07
6.62717e-07
1.44627e-06
1.40138e-06
2.15258e-06
1.82851e-06
1.3994e-06
1.43932e-06
2.19226e-06
6.97732e-07
1.77726e-06
1.79162e-06
6.54258e-07
7.3397e-07
2.34895e-06
7.10392e-07
6.56982e-07
6.26314e-07
2.18926e-06
6.12493e-07
6.03901e-07
5.92831e-07
5.12031e-07
5.11667e-07
4.9467e-07
4.97016e-07
4.96269e-07
5.33079e-07
4.94191e-07
4.97855e-07
4.86862e-07
4.90626e-07
4.94649e-07
4.94954e-07
4.91922e-07
4.89615e-07
4.96354e-07
4.95189e-07
4.82188e-07
1.10854e-06
5.3299e-07
5.44763e-07
5.36655e-07
5.15417e-07
5.01772e-07
5.53774e-07
5.53774e-07
5.53774e-07
5.53774e-07
5.53774e-07
5.53774e-07
5.50785e-07
5.50785e-07
7.45291e-07
7.11668e-07
4.9897e-07

NodalForce_(N) 3 343 double
-6.35661e-08 1.40657e-08 -1.09869e-09
-5.76688e-07 2.14554e-07 -1.1916e-07
0.000399493 0.000414417 0.000442109
1.19392e-07 2.36896e-07 -1.18525e-07
8.99935e-07 1.08051e-06 -5.17736e-07
6.66297e-07 1.02797e-06 -5.71472e-07
-1.20777e-07 2.45381e-06 -1.33706e-06
-4.13051e-07 1.23719e-06 -6.83587e-07
8.96369e-07 1.43054e-06 -7.57003e-07
-1.08043e-07 5.59933e-07 -3.15313e-07
6.98042e-07 3.10647e-07 -1.45412e-07
2.1023e-06 1.50098e-06 -7.45048e-07
1.17306e-06 5.09942e-07 -2.15638e-07
9.54783e-07 2.04035e-07 -1.54938e-07
5.26484e-07 2.68091e-07 -1.51507e-07
-4.19093e-07 1.58705e-06 -9.0624e-07
-5.81158e-07 1.13271e-06 -6.32431e-07
3.95575e-07 2.01516e-07 -1.14759e-07
-0.00134454 0.000725113 -0.00018756
1.68341e-08 4.59031e-08 -1.81427e-08
1.48438e-07 1.31223e-06 -6.79325e-07
1.73387e-06 3.26684e-06 -1.65531e-06
-0.0005513 -0.00169793 -0.000860573
6.79325e-08 4.35502e-07 -1.73846e-07
4.90752e-07 1.42962e-06 -7.79377e-07
-2.75504e-07 5.04322e-07 -3.3572e-07
1.72423e-07 1.75802e-08 -2.0217e-08
4.3133e-07 4.02608e-07 -2.04601e-07
-3.75141e-07 7.24266e-08 -4.44776e-08
-1.00022e-06 1.10696e-07 -1.01735e-07
-1.00471e-06 4.4241e-07 -3.55909e-07
-2.0019e-06 4.34363e-06 -2.43851e-06
9.85934e-07 3.16797e-06 -1.75263e-06
-4.94192e-07 2.12386e-06 -1.15951e-06
-1.16763e-06 1.50858e-06 -8.00227e-07
-2.17972e-06 2.64655e-06 -1.44233e-06
-1.43989e-06 1.15556e-06 -6.10726e-07
-4.40742e-06 3.69212e-06 -2.02928e-06
4.55404e-07 3.36869e-07 -1.8046e-07
8.39284e-07 6.44747e-07 -4.20446e-07
9.69483e-07 6.11943e-07 -2.55789e-07
-9.11557e-07 1.24005e-06 -7.41491e-07
-3.77396e-07 2.0942e-07 -8.48523e-08
-3.14541e-07 9.17987e-08 -3.30292e-08
-1.06975e-06 5.86004e-07 -2.79811e-07
0.000988329 0.000798849 -0.000397788
-2.09858e-07 7.56634e-08 -3.80015e-08
-0.000239184 0.00106779 1.54109e-05
9.87984e-08 2.06807e-07 -1.30924e-07
8.67823e-08 2.7625e-08 -4.62274e-09
-1.75011e-08 5.86346e-07 -3.31178e-07
1.20458e-07 1.08648e-06 -6.66052e-07
-6.0569e-07 1.14312e-07 -8.31103e-08
-2.03634e-07 1.44141e-07 -8.78719e-08
-8.63688e-08 6.21826e-08 -3.9637e-08
1.32611e-07 1.8166e-06 -9.73553e-07
0.00082915 0.000612833 0.000713264
-1.68077e-07 3.15335e-08 -7.68125e-09
-9.79395e-05 -1.34434e-05 -0.000347836
-2.12334e-07 8.3384e-07 -4.52099e-07
3.08996e-07 1.16007e-07 -7.49095e-08
6.47173e-07 1.54597e-06 -7.76141e-07
1.05946e-06 4.69305e-06 -2.37901e-06
2.48165e-07 2.24161e-06 -1.1796e-06
7.57269e-07 6.17807e-07 -2.60437e-07
-2.74154e-07 7.209e-09 -1.11608e-08
4.32455e-07 1.32636e-07 -5.14933e-08
8.29325e-07 1.13695e-06 -6.6865e-07
-6.6759e-07 1.28808e-06 -6.8984e-07
1.11562e-06 1.42233e-06 -7.0587e-07
-9.4833e-08 9.9351e-08 -5.0039e-08
3.31138e-07 9.30176e-08 -5.09259e-08
3.28364e-07 1.53747e-07 -5.36308e-08
2.15058e-07 5.26443e-07 -3.46757e-07
5.13558e-08 2.25974e-07 -1.27013e-07
0.00149772 0.000599244 0.000342677
6.638e-08 5.56099e-07 -3.12746e-07
-3.56717e-08 1.08773e-08 -3.72592e-09
-2.51039e-07 6.56511e-07 -3.62177e-07
-8.14139e-07 6.80713e-07 -4.0547e-07
-5.79748e-07 3.6219e-07 -2.10709e-07
-1.72862e-07 3.36469e-07 -1.61536e-07
-9.74241e-07 1.68119e-06 -9.02001e-07
-4.3091e-07 1.68038e-07 -1.18066e-07
5.80736e-05 -0.00112987 0.000409331
-1.41719e-07 1.69267e-09 5.26149e-10
0.000107443 -0.000718485 0.000445017
-0.00084103 -0.000348428 6.88626e-05
-0.000302616 0.000280035 -0.000166274
-2.28609e-07 7.6992e-08 -4.23805e-08
6.10012e-08 2.28574e-08 -6.22656e-09
-3.23932e-07 6.20682e-07 -3.6337e-07
2.40245e-10 3.26818e-07 -2.60363e-07
6.42816e-07 5.53315e-07 -2.88418e-07
4.07043e-06 4.52163e-06 -2.27634e-06
7.23113e-07 8.50199e-07 -4.15042e-07
8.63896e-07 1.33293e-06 -6.5923e-07
1.17142e-07 8.37003e-07 -4.31589e-07
-5.89147e-05 0.000122501 6.88671e-06
-1.25599e-06 1.37751e-06 -7.3204e-07
1.56306e-07 7.86199e-07 -3.64414e-07
-2.43177e-07 1.19405e-06 -6.72474e-07
-1.66811e-07 5.65172e-08 -2.73578e-08
-1.6157e-06 1.51932e-06 -8.1313e-07
5.67242e-09 6.74472e-08 -2.47801e-08
6.21626e-07 7.75853e-07 -4.01878e-07
-2.12542e-06 1.48376e-06 -8.08908e-07
1.40107e-06 1.47895e-06 -7.28842e-07
1.58017e-06 1.50066e-06 -7.17515e-07
8.62735e-08 5.92555e-09 -3.82224e-09
-1.04811e-06 7.228e-07 -3.99952e-07
-2.12143e-06 1.08355e-06 -6.34011e-07
-1.32944e-06 1.06035e-06 -6.61491e-07
-0.000788189 -0.00036259 -0.000835482
2.71055e-07 9.02209e-07 -4.50962e-07
1.43072e-07 7.32721e-08 -5.54693e-08
-6.28887e-07 7.45443e-07 -3.96776e-07
-9.99421e-07 2.19403e-06 -1.18447e-06
-1.62012e-06 6.84379e-07 -3.69737e-07
7.73282e-07 5.78045e-07 -2.65357e-07
1.00876e-06 1.83803e-06 -9.26512e-07
6.13105e-07 1.84218e-06 -9.77044e-07
2.21143e-07 3.18226e-08 -1.67413e-08
0.000221225 0.000172734 0.000142831
1.00525e-07 1.47964e-08 -2.53892e-09
-2.26089e-07 7.1359e-07 -3.83159e-07
-1.34495e-06 5.7874e-07 -3.22795e-07
-0.000113032 -0.000768779 -0.000451997
1.8267e-09 8.88087e-09 -3.38011e-09
-1.36112e-06 6.18132e-07 -2.9923e-07
-4.36265e-07 5.01587e-07 -2.72039e-07
-4.31471e-07 9.35811e-07 -5.06646e-07
8.65966e-07 5.09842e-07 -2.53202e-07
5.22376e-07 6.69218e-07 -3.72696e-07
0.000627887 -0.00117158 -0.000108543
-7.1821e-08 3.27435e-09 -4.90478e-09
6.1006e-05 6.73241e-05 -0.000227483
4.15634e-07 6.72127e-07 -3.33804e-07
-4.40237e-07 7.42258e-07 -3.96795e-07
-1.33874e-06 1.90751e-06 -1.02676e-06
3.66369e-07 1.3596e-06 -7.37542e-07
6.92914e-07 5.45e-07 -2.67386e-07
6.10011e-07 5.56431e-07 -2.64218e-07
7.10477e-07 1.02831e-06 -5.16366e-07
-0.00109822 0.000307772 8.64724e-05
1.50926e-06 8.34995e-07 -3.85981e-07
3.61092e-07 2.44717e-07 -1.0278e-07
-1.23539e-06 3.18574e-06 -1.70599e-06
-1.92015e-07 1.273e-06 -6.58236e-07
-2.3792e-07 1.13974e-07 -5.21176e-08
-5.90596e-07 1.16691e-07 -5.63213e-08
5.21162e-08 8.03663e-09 -5.89273e-09
-0.00029707 -0.000754167 -6.67462e-05
-3.05029e-08 5.46841e-07 -2.91363e-07
-9.00662e-07 5.17925e-07 -2.70276e-07
-1.94773e-07 5.04609e-07 -2.73698e-07
0.00052996 -0.000885647 0.000271017
-0.00151102 0.000139307 0.000538789
1.35147e-07 3.46818e-07 -2.0509e-07
5.38038e-07 1.31875e-06 -6.84448e-07
3.00776e-07 1.46338e-07 -5.49546e-08
-1.88751e-07 6.68966e-08 -3.44139e-08
9.21223e-08 5.67821e-07 -2.72098e-07
3.54827e-08 1.83324e-07 -1.12491e-07
-1.60667e-07 8.5114e-07 -4.55573e-07
-5.91316e-08 5.70824e-07 -3.10248e-07
-1.63554e-07 7.03025e-07 -3.66442e-07
-3.35436e-07 9.45396e-08 -7.34045e-08
-9.60442e-07 5.73705e-07 -3.1308e-07
-7.02947e-07 3.97158e-07 -2.12493e-07
-4.91582e-07 2.6766e-07 -1.57378e-07
-9.40684e-07 1.11337e-06 -6.30967e-07
3.10829e-07 5.26778e-07 -2.61181e-07
1.6891e-07 9.02844e-08 -7.19354e-08
1.93811e-07 1.99108e-07 -1.48185e-07
1.40612e-07 8.73451e-08 -6.15048e-08
-4.02011e-07 4.59526e-07 -2.56318e-07
3.00094e-07 8.69292e-08 -2.85517e-08
-3.57741e-07 1.09975e-06 -5.79231e-07
0.000303488 -0.000730947 -0.000608252
5.01141e-07 1.30367e-06 -6.87274e-07
-3.96518e-07 1.00774e-06 -5.14634e-07
3.4712e-08 1.35078e-06 -6.77925e-07
0.000297194 -0.000842882 0.000433189
-2.93135e-08 4.85733e-08 -2.36518e-08
7.23172e-07 5.24631e-07 -2.43291e-07
9.32895e-07 1.01639e-06 -5.17223e-07
4.01538e-07 6.90432e-07 -3.62439e-07
-7.14515e-07 4.32393e-07 -2.12313e-07
-8.51551e-07 6.9516e-07 -3.68216e-07
-6.63852e-07 3.3767e-07 -1.65358e-07
-6.0627e-07 5.05692e-07 -2.63044e-07
3.90829e-08 5.59672e-08 -5.54758e-08
-2.75148e-07 1.83574e-07 -1.2501e-07
1.94598e-07 8.86707e-08 -3.44383e-08
2.79777e-07 1.09559e-07 -4.42254e-08
-2.05628e-07 8.4941e-07 -4.3281e-07
-1.05327e-06 3.42995e-07 -2.15475e-07
-2.29673e-08 8.46502e-07 -4.47528e-07
-4.70456e-07 4.13944e-07 -2.33785e-07
-1.05462e-06 7.47709e-07 -3.96937e-07
0.000354306 -0.000458056 0.000204462
-1.6309e-07 9.9123e-09 -6.29032e-09
3.37494e-07 0.000494028 0.000163311
-5.31728e-07 1.64528e-07 -9.33607e-08
-8.66262e-07 2.68583e-07 -1.39876e-07
-4.8031e-07 6.33427e-07 -4.07133e-07
-3.04123e-07 4.81067e-07 -2.57893e-07
5.63274e-07 4.73444e-07 -2.14245e-07
5.4598e-07 3.75408e-07 -1.59279e-07
-1.16276e-07 5.82054e-09 -6.9972e-10
-4.51498e-08 6.59119e-07 -3.26173e-07
1.67459e-07 8.49109e-07 -4.50097e-07
-9.21758e-07 6.3517e-07 -3.30977e-07
4.45117e-07 3.3915e-07 -1.94394e-07
1.67647e-07 8.95565e-08 -3.85147e-08
5.15731e-07 8.27063e-07 -4.22948e-07
-6.74968e-08 1.25517e-07 -8.54171e-08
-2.51944e-07 3.2566e-07 -1.91887e-07
-7.925e-07 9.6325e-07 -5.1011e-07
-4.25587e-07 2.82044e-07 -1.52116e-07
1.22424e-07 1.07895e-06 -5.71063e-07
-6.2313e-07 2.64878e-07 -1.29244e-07
7.82722e-07 7.29874e-07 -3.51212e-07
-3.8601e-07 8.5824e-08 -3.71358e-08
-0.000789174 -0.000170452 0.000257581
1.07161e-08 1.66102e-07 -1.06665e-07
5.40417e-07 3.12079e-07 -1.30733e-07
-2.84609e-07 3.30618e-07 -1.96609e-07
-4.85897e-07 1.93677e-07 -8.70111e-08
3.95574e-07 2.23666e-07 -8.87131e-08
-2.66933e-08 2.94182e-07 -1.82844e-07
0.000794036 -0.000840792 7.60081e-06
-0.000277087 -5.47283e-05 0.000212842
-3.781e-07 2.02362e-07 -1.43302e-07
-7.54578e-07 6.27166e-07 -3.77559e-07
2.36894e-07 2.29189e-07 -1.09457e-07
-1.57852e-07 8.28022e-07 -4.40805e-07
-3.97449e-07 3.0339e-07 -1.76212e-07
2.74005e-07 3.30861e-07 -2.12146e-07
-4.55068e-07 9.67731e-07 -5.01447e-07
0.000409506 -7.55405e-06 0.000309199
-7.86053e-07 6.79647e-07 -3.6e-07
4.18787e-08 5.71038e-08 -2.56453e-08
0.000615882 -0.000550183 -4.36912e-06
-9.69867e-08 1.04516e-07 -5.76719e-08
0.00108371 -0.000242296 -0.000233736
-7.01341e-07 8.95337e-07 -4.73095e-07
-3.98934e-07 5.34763e-07 -2.76504e-07
7.91616e-05 -0.000353138 5.15615e-05
-9.28082e-08 2.7691e-07 -1.47587e-07
-0.000266939 -0.000303708 -0.000261934
1.64028e-07 2.9102e-07 -1.44423e-07
-2.01525e-07 2.68243e-07 -1.4397e-07
-5.29136e-07 1.74394e-07 -1.19425e-07
2.63533e-07 9.5746e-07 -4.98384e-07
6.87738e-08 1.17424e-07 -5.41853e-08
-0.000746743 -0.00078212 -9.9531e-05
2.04095e-07 3.51206e-07 -1.88709e-07
2.15563e-07 9.88162e-08 -4.18631e-08
2.3633e-07 2.87883e-07 -1.41798e-07
-0.000636252 -0.000591022 -2.65315e-05
-8.66614e-07 5.83017e-07 -3.09151e-07
-7.60612e-07 7.57673e-07 -3.97674e-07
2.06275e-07 2.9723e-07 -1.48093e-07
-1.32017e-07 2.87395e-07 -1.46153e-07
2.10226e-09 1.96007e-08 -2.97136e-10
0.000173832 0.000748332 -0.000331449
-0.000149462 0.000135327 0.000118191
1.38642e-05 -0.000251857 8.53271e-05
-7.92438e-07 5.80583e-07 -3.04617e-07
-2.4447e-07 2.37144e-07 -1.25735e-07
-5.04292e-07 1.76673e-07 -7.41869e-08
2.19782e-08 2.92097e-07 -1.5722e-07
2.68948e-05 -0.00019732 0.000107998
7.93319e-05 0.0005798 0.000172161
7.66643e-08 1.5485e-08 -1.10054e-09
9.55484e-08 1.43452e-08 -6.4065e-09
-4.0562e-07 5.74511e-07 -3.16866e-07
-1.94252e-08 1.45963e-08 -2.43956e-09
1.00146e-05 0.000484291 -0.000175851
-2.69334e-07 7.04734e-07 -3.78692e-07