# vtk DataFile Version 4.2
vtk output
ASCII
DATASET UNSTRUCTURED_GRID

POINTS 343 double
0.00112166 0.00419504 7.90189e-08
0.00216934 0.00498292 0.0021752
0 0.00419538 0.00112517
0.00192982 0.00195486 0.00194202
0.00517122 0.00241087 0.00503082
0.00517263 0.00383342 0.00639602
0.00761969 0.00478302 0.00499547
0.00622097 0.00485537 0.00368961
0.00683799 0.00329512 0.00691104
0.00498879 0.00499547 0.00499855
0.00418565 0.00112137 0.00999772
0.00528514 0.00208465 0.00790223
0.00419627 -3.95922e-06 0.00831601
0.00201319 0.00200282 0.00803304
0.00428975 0.00253561 0.00999764
0.00695228 0.0064527 0.00694393
0.00640877 0.00618745 0.00518075
0.00226087 0.00218516 0.00514594
0 0.00143586 0.00417514
0.00159412 0.00346629 0.00403704
0.00683598 0.00320061 0.00315875
0.0077477 0.00222181 0.00506026
0 0.00270918 0.00154168
0.00415806 0.00143183 -9.23677e-07
0.00500806 0.00219193 0.00219621
0.00396041 0.00352871 0.00160199
0.00134624 -4.52578e-07 0.00405994
0.00418607 -4.34324e-06 0.00168695
0.00262206 0.00695229 -2.4911e-07
0.00193555 0.00805296 0.00194475
0.00408266 0.00624967 0.00164397
0.00799588 0.00799393 0.00799308
0.00796449 0.00482372 0.00801812
0.00838311 0.00608843 0.00594359
0.00998542 0.00883768 0.00418612
0.00756799 0.00764284 0.00496031
0.00855172 0.00998942 0.00416221
0.00796391 0.00797913 0.0020121
0.00353688 0.00303808 0.00695889
0.00443889 0.00366427 0.00832256
0.00389501 0.00160306 0.00596831
0.00500114 0.00767134 0.00767502
0.00198808 0.00800821 0.00798956
0.00282284 0.00999831 0.00712696
0.0039115 0.00840142 0.00595716
0 0.00695361 0.00262895
0.00164515 0.00623951 0.00408782
0 0.0040177 0.00850214
0.00231425 0.00498612 0.00766132
0.00143329 0.00417466 0.00999992
0.00717169 0.00712441 0.00999421
0.00611628 0.00597519 0.00841469
0.00204973 0.00794166 0.00474175
0.00304138 0.00694364 0.00646739
0.00158599 0.00607854 0.00592594
0.00998605 0.00579584 0.00830835
0 0.00718191 0.00711644
0.00158269 0.0057737 -1.21158e-08
0 0.00577432 0.00158701
0.00998672 0.00716945 0.00710788
0.00286898 0.00335028 0.00999899
0.00997269 0.00142253 0.00416802
0.00803626 0.0019523 0.00197489
0.00838775 0.00351151 0.00399386
0.00372764 0.00165038 0.00412768
0.00150713 0.00999972 0.00581501
0.0028134 -2.00236e-06 0.00712731
0.00611109 0.00417615 0.00837318
0.00998264 0.00726152 0.00418838
0.00853464 -1.11875e-05 0.00416275
0.00333954 0.00287115 -5.23424e-07
0.0027033 0.00154007 0.00999906
0.00282114 -2.28899e-06 0.00283169
0.0047972 0.00519661 0.00755266
0.00315759 0.00314738 0.00316695
0 0.00849157 0.00581511
0.00486378 0.00367256 0.00378487
0.00153622 0.00270878 8.03587e-09
0.00579552 0.00832031 0.00999583
0.00597653 0.00999408 0.0085022
0.00420832 0.00999655 0.00831601
0.00401489 0.0085006 0.00999776
0.00998714 0.0084789 0.00580704
0.00314412 0.00683439 0.00315044
0 0.00748929 0.00137438
0.00137133 0.00748899 3.14282e-08
0 0.00287343 0.00335182
0 0.00580816 0.00831736
0 0.00429792 0.00253898
0.00253078 0.0042966 -1.99718e-07
0.00143361 0.00581929 0.00999992
0.0051718 0.00647164 0.0063985
0.00360189 0.00651045 0.00823295
0.00693808 0.00261995 0.0099946
0.0080053 0.00194898 0.00802976
0.00694679 -8.61391e-06 0.00307873
0.00600286 0.00165818 0.00361046
0.00997393 0.00286043 0.00334493
0 0.00140616 0.00256446
0.00636602 0.00822187 0.00641786
0.00579661 0.00142901 -1.90463e-06
0.00601947 0.00354611 0.00160072
0.00315168 0.00999793 0.00582465
0.00854876 0.00998958 0.00582721
0.00255363 0.00140435 -2.38598e-07
0.00595358 -6.99738e-06 0.00149195
0.00627057 0.00828181 0.00361461
0.00853168 -1.10806e-05 0.00582757
0.00619104 0.00166651 0.00636233
0.00140287 0.00256412 0.00999996
0.00709925 0.0071742 -3.49836e-06
0.0051567 0.00768563 0.00216712
0.005929 0.00608801 0.00159942
0 0.00686719 0.00578184
0.00997039 0.00139269 0.00255787
0.00177207 0.00361012 0.00640773
0.00998261 0.00847403 0.00261666
0.00839618 0.00617949 0.00412761
0.00596893 0.00999367 0.00149126
0.00695034 -8.32191e-06 0.00692252
0.00997507 0.00142228 0.00581189
0.00837983 0.00356338 0.00605515
0.00150292 -5.22397e-07 0.00581514
0 0.0013659 0.00748679
0.00136479 -3.95297e-07 0.00752892
0.00998422 0.00685466 0.00577385
0.00580273 0.00848569 -2.40663e-06
0 0.0075208 0.00859127
0.00136458 0.00748656 0.00999983
0.00422445 0.00820258 0.00362738
0.00858396 0.00998956 0.00750537
0.0099899 0.00861764 0.00751758
0.00576223 0.00158102 0.00999597
0.00724842 0.00418036 0.00999418
0 0.0057735 0.00666667
0.00136857 0.00999967 0.00752889
0 0.00863025 0.00752641
0.00855902 -1.14084e-05 0.0025025
0.0099799 0.00694082 0.002622
0.00844085 0.00633212 0.002158
0.00849952 0.00581413 0.00999255
0.00747408 0.0013655 0.00999383
0.00856679 -1.10977e-05 0.00750559
0.00997734 0.00135277 0.00747823
0 0.00143551 0.00581971
0.00596117 -6.58998e-06 0.00850229
0.00419728 -4.27167e-06 0.00339894
0.00791427 0.00469862 0.00203025
0.0099752 0.00428518 0.00253228
0.00422448 0.00999645 0.0066652
0.00283053 0.00999838 0.00283161
0.00130761 -4.90074e-07 0.00241826
0 0.00727418 0.00419576
0.00998362 0.00576114 0.00665834
0.00696315 0.00999212 0.00307811
0.0075025 0.00862882 0.00999372
0 0.00574334 0.00336387
0 0.0043297 0.00416652
0.00686179 0.00577734 0.00999463
0.00997931 0.00300941 0.00690695
0.00421176 -4.06807e-06 0.00666546
0.00247694 0.00999854 0.008611
0.00745908 0.00135659 -3.4285e-06
0.00576896 0.00666165 0.00999582
0.00998946 0.0075084 0.00858212
0.00860115 0.00754368 0.00999235
0.00689163 0.00301438 -2.92814e-06
0.00335417 0.00574143 -5.36493e-07
0.00751059 0.00862152 -4.07182e-06
0.0075026 0.00999098 0.0013832
0.00576719 0.00686177 -2.3323e-06
0.00696031 0.00636358 0.00302999
0.00748598 -9.68906e-06 0.00138403
0.00288085 0.00499791 0.00999889
0.00432577 0.00583057 0.00999743
0.00432341 0.00416367 0.00999744
0.0075119 0.00999141 0.00861008
0.00246862 -1.60457e-06 0.00861119
0.00997875 0.00573081 0.00335688
0 0.00302218 0.00691532
0.00998324 0.00400521 0.00849311
0.00847621 0.00400733 -4.57564e-06
0.00997118 0.002696 0.00153538
0 0.00244495 0.00857025
0.00244441 0.00856907 0.00999904
0.00749523 -9.23036e-06 0.00861015
0.00847236 0.00261366 0.00999258
0.00883842 0.00418336 0.00999209
0.00566574 0.00999441 0.00583082
0.00517876 0.00757922 0.00503054
0.00563626 0.00999437 0.004213
0.00696663 0.00999234 0.00692228
0.00301996 0.00691397 0.00999864
0.00415294 0.00432668 -9.87444e-07
0.00282439 -2.31106e-06 0.00440433
0.00314156 -2.5475e-06 0.005825
0.00997315 0.00418248 0.00111881
0.0036313 0.008335 0.00158734
0.00997754 0.00431703 0.00415925
0.00664809 0.00576662 -2.88431e-06
0.00857617 0.00998922 0.00250174
0 0.00848692 0.00262374
0.0013501 0.00999974 0.00405988
0 0.00885053 0.00419359
0.00418533 0.00884692 -1.2517e-06
0.00419858 0.00999638 0.00168651
0.00498611 0.00478736 0.00237728
0.00719758 0.00451372 -3.29099e-06
0.00562135 -6.39731e-06 0.00421353
0.00565089 -6.32041e-06 0.00583115
0.00131136 0.00999976 0.0024181
0.00854152 0.0024341 -4.53168e-06
0.00998227 0.00450927 0.00721104
0.0071073 0.009992 0.00499623
0.00573392 0.0033587 0.00999601
0.00244747 -1.929e-06 0.00135634
0.00998068 0.00243213 0.00856123
0.00239057 0.00479032 0.00499967
0.00581469 0.0043245 -2.14195e-06
0.0082949 0.00579823 -4.62743e-06
0.00547607 0.00999478 0.00721765
0.00997994 0.00431756 0.00582538
0.00539538 0.00999464 0.00277362
0.00709086 -8.69655e-06 0.0049967
0.00283356 0.00999837 0.00440409
0 0.00452174 0.00721958
0.00451838 0.0072169 0.00999724
0.00546148 -5.91119e-06 0.00721773
0.00359564 0.00507181 0.00359596
0.00424801 0.00999645 0.00500702
0.004235 -4.18623e-06 0.00500752
0.00366472 0.00521479 0.00617381
0 0.005744 0.00499998
0 0.00433013 0.00583333
0.00498569 0.00573994 -1.60554e-06
0.00497504 0.00633521 0.00355229
0.00538079 -6.1137e-06 0.00277413
0.00998112 0.00573159 0.00499232
0.00368473 0.00640569 0.00484328
0.005737 0.00499519 0.00999593
0.0099764 0.00576164 0.00158047
0 0.00666667 0
0.00857122 0.00751043 -5.11471e-06
0.0033177 -3.29493e-06 -2.99539e-07
0 0.01 0.00666667
0.00500072 0.00999539 0.00999678
0 0.00288419 0.00499914
0.00997916 0.00747636 0.00136773
0.00997599 0.00665382 -6.68084e-06
0 0.005 0.01
0.00498089 0.00287955 -1.46106e-06
0 0.005 0
0.00996911 -1.37579e-05 0.00332659
0.00999116 0.00998691 0.00665815
0.00418552 0.00727106 -1.18646e-06
0.00997629 0.00287131 0.00499159
0.00497783 -5.76975e-06 -1.20502e-06
0 0 0.00666667
0.00379013 0.00361434 0.0052256
0.00498702 -5.47537e-06 0.00999655
0.00997384 -1.36048e-05 0.00665853
0 0 0.005
0.00876543 0.00998871 0.00121459
0.00998125 0.00876677 0.0012133
0.00997145 -1.36773e-05 0.00499258
0.00997316 0.00498702 -6.46669e-06
0.00121532 0.00121958 -1.27135e-09
0 0.00122008 0.00122008
0 0.00333333 0.01
0 0.00666667 0.01
0.0087618 0.00876883 -5.4387e-06
0.00998637 0.00998662 0.00332596
0.00421018 0.00999644 0.00339862
0.00999004 0.00665437 0.00999039
0 0.00333333 0
0 0.00122008 0.00877992
0.00121606 -4.67355e-07 0.00877972
0.00121684 0.00121971 0.01
0.00877596 0.00998924 0.0087723
0.00121918 0.00877963 0.00999985
0 0.00877992 0.00877992
0.009992 0.00876732 0.00877066
0.00665482 0.0099923 -3.45109e-06
0.00996823 0.00120646 0.00121392
0.00121952 0.00999962 0.00877987
0.00877559 0.00876957 0.00999209
0.00998716 0.00498768 0.00999041
0 0 0.00333333
0.00663891 -8.29119e-06 -2.51095e-06
0.00874824 -1.18138e-05 0.00121546
0.00120642 -5.69085e-07 0.00121181
0 0.00877992 0.00122008
0.00121777 0.0087795 5.08387e-08
0.00120994 0.00999967 0.00121143
0.00997892 0.00120688 0.00877075
0.00876252 0.00120893 0.0099921
0.00665063 -8.04374e-06 0.00999452
0.00874873 0.00120851 -4.67011e-06
0.00875876 -1.14406e-05 0.00877232
0.00997032 0.0033202 -6.27521e-06
0.00333424 0.00999754 0.00999849
0.00245585 0.00999872 0.00135602
0.00666661 0.00999294 0.00999481
0.00998429 0.00332076 0.00999043
0 0.01 0.005
0.00261832 0.00848541 -3.06581e-07
0.00998872 0.00998678 0.00499216
0 0.01 0.00333333
0 0.00166667 0
0.0099668 -1.38965e-05 0.00166048
0 0.00166667 0.01
0 0.00833333 0
0.009979 0.00832014 -6.78233e-06
0.00997623 -1.35814e-05 0.00832428
0.00998407 0.00998648 0.00165968
0.00999356 0.00998696 0.00832415
0.00166688 0.0099991 0.00999961
0 0.01 0.00833333
0.00831829 0.00998937 -5.13434e-06
0.00830118 -1.11995e-05 -4.12314e-06
0.00831461 -1.08417e-05 0.00999247
0.00833166 0.00999 0.00999266
0 0 0.00833333
0.00999299 0.00832086 0.00999036
0.00165877 -1.23641e-06 -7.43187e-09
0 0 0.00166667
0.00332832 0.00999748 -7.76567e-07
0.00998144 0.00165354 0.00999039
0.00996748 0.00165305 -6.1458e-06
0.00166132 -9.70155e-07 0.00999971
0.00166446 0.00999923 -1.37054e-07
0 0.01 0.00166667
0.00999595 0.0099871 0.00999037
0 0 0.01
0.00998192 0.00998629 -6.98255e-06
0.0099786 -1.36923e-05 0.00999025
0 0.01 0.01
0.00996465 -1.39377e-05 -5.99993e-06
0 0.01 0
0 0 0
0.00499155 0.00999505 -1.94039e-06
0.00332411 -3.06399e-06 0.00999822
0 0.00833333 0.01

CELLS 343 686
1 0
1 1
1 2
1 3
1 4
1 5
1 6
1 7
1 8
1 9
1 10
1 11
1 12
1 13
1 14
1 15
1 16
1 17
1 18
1 19
1 20
1 21
1 22
1 23
1 24
1 25
1 26
1 27
1 28
1 29
1 30
1 31
1 32
1 33
1 34
1 35
1 36
1 37
1 38
1 39
1 40
1 41
1 42
1 43
1 44
1 45
1 46
1 47
1 48
1 49
1 50
1 51
1 52
1 53
1 54
1 55
1 56
1 57
1 58
1 59
1 60
1 61
1 62
1 63
1 64
1 65
1 66
1 67
1 68
1 69
1 70
1 71
1 72
1 73
1 74
1 75
1 76
1 77
1 78
1 79
1 80
1 81
1 82
1 83
1 84
1 85
1 86
1 87
1 88
1 89
1 90
1 91
1 92
1 93
1 94
1 95
1 96
1 97
1 98
1 99
1 100
1 101
1 102
1 103
1 104
1 105
1 106
1 107
1 108
1 109
1 110
1 111
1 112
1 113
1 114
1 115
1 116
1 117
1 118
1 119
1 120
1 121
1 122
1 123
1 124
1 125
1 126
1 127
1 128
1 129
1 130
1 131
1 132
1 133
1 134
1 135
1 136
1 137
1 138
1 139
1 140
1 141
1 142
1 143
1 144
1 145
1 146
1 147
1 148
1 149
1 150
1 151
1 152
1 153
1 154
1 155
1 156
1 157
1 158
1 159
1 160
1 161
1 162
1 163
1 164
1 165
1 166
1 167
1 168
1 169
1 170
1 171
1 172
1 173
1 174
1 175
1 176
1 177
1 178
1 179
1 180
1 181
1 182
1 183
1 184
1 185
1 186
1 187
1 188
1 189
1 190
1 191
1 192
1 193
1 194
1 195
1 196
1 197
1 198
1 199
1 200
1 201
1 202
1 203
1 204
1 205
1 206
1 207
1 208
1 209
1 210
1 211
1 212
1 213
1 214
1 215
1 216
1 217
1 218
1 219
1 220
1 221
1 222
1 223
1 224
1 225
1 226
1 227
1 228
1 229
1 230
1 231
1 232
1 233
1 234
1 235
1 236
1 237
1 238
1 239
1 240
1 241
1 242
1 243
1 244
1 245
1 246
1 247
1 248
1 249
1 250
1 251
1 252
1 253
1 254
1 255
1 256
1 257
1 258
1 259
1 260
1 261
1 262
1 263
1 264
1 265
1 266
1 267
1 268
1 269
1 270
1 271
1 272
1 273
1 274
1 275
1 276
1 277
1 278
1 279
1 280
1 281
1 282
1 283
1 284
1 285
1 286
1 287
1 288
1 289
1 290
1 291
1 292
1 293
1 294
1 295
1 296
1 297
1 298
1 299
1 300
1 301
1 302
1 303
1 304
1 305
1 306
1 307
1 308
1 309
1 310
1 311
1 312
1 313
1 314
1 315
1 316
1 317
1 318
1 319
1 320
1 321
1 322
1 323
1 324
1 325
1 326
1 327
1 328
1 329
1 330
1 331
1 332
1 333
1 334
1 335
1 336
1 337
1 338
1 339
1 340
1 341
1 342

CELL_TYPES 343
1
1
1
1
1
1
1
1
1
1
1
1
1
1
1
1
1
1
1
1
1
1
1
1
1
1
1
1
1
1
1
1
1
1
1
1
1
1
1
1
1
1
1
1
1
1
1
1
1
1
1
1
1
1
1
1
1
1
1
1
1
1
1
1
1
1
1
1
1
1
1
1
1
1
1
1
1
1
1
1
1
1
1
1
1
1
1
1
1
1
1
1
1
1
1
1
1
1
1
1
1
1
1
1
1
1
1
1
1
1
1
1
1
1
1
1
1
1
1
1
1
1
1
1
1
1
1
1
1
1
1
1
1
1
1
1
1
1
1
1
1
1
1
1
1
1
1
1
1
1
1
1
1
1
1
1
1
1
1
1
1
1
1
1
1
1
1
1
1
1
1
1
1
1
1
1
1
1
1
1
1
1
1
1
1
1
1
1
1
1
1
1
1
1
1
1
1
1
1
1
1
1
1
1
1
1
1
1
1
1
1
1
1
1
1
1
1
1
1
1
1
1
1
1
1
1
1
1
1
1
1
1
1
1
1
1
1
1
1
1
1
1
1
1
1
1
1
1
1
1
1
1
1
1
1
1
1
1
1
1
1
1
1
1
1
1
1
1
1
1
1
1
1
1
1
1
1
1
1
1
1
1
1
1
1
1
1
1
1
1
1
1
1
1
1
1
1
1
1
1
1
1
1
1
1
1
1
1
1
1
1
1
1
1
1
1
1
1
1
1
1
1
1
1
1
1
1
1
1
1
1
1
1
1
1
1
1
1
1
1
1
1
1

POINT_DATA 343
FIELD FieldData 8

NodeID_(#) 1 343 int
0
1
2
3
4
5
6
7
8
9
10
11
12
13
14
15
16
17
18
19
20
21
22
23
24
25
26
27
28
29
30
31
32
33
34
35
36
37
38
39
40
41
42
43
44
45
46
47
48
49
50
51
52
53
54
55
56
57
58
59
60
61
62
63
64
65
66
67
68
69
70
71
72
73
74
75
76
77
78
79
80
81
82
83
84
85
86
87
88
89
90
91
92
93
94
95
96
97
98
99
100
101
102
103
104
105
106
107
108
109
110
111
112
113
114
115
116
117
118
119
120
121
122
123
124
125
126
127
128
129
130
131
132
133
134
135
136
137
138
139
140
141
142
143
144
145
146
147
148
149
150
151
152
153
154
155
156
157
158
159
160
161
162
163
164
165
166
167
168
169
170
171
172
173
174
175
176
177
178
179
180
181
182
183
184
185
186
187
188
189
190
191
192
193
194
195
196
197
198
199
200
201
202
203
204
205
206
207
208
209
210
211
212
213
214
215
216
217
218
219
220
221
222
223
224
225
226
227
228
229
230
231
232
233
234
235
236
237
238
239
240
241
242
243
244
245
246
247
248
249
250
251
252
253
254
255
256
257
258
259
260
261
262
263
264
265
266
267
268
269
270
271
272
273
274
275
276
277
278
279
280
281
282
283
284
285
286
287
288
289
290
291
292
293
294
295
296
297
298
299
300
301
302
303
304
305
306
307
308
309
310
311
312
313
314
315
316
317
318
319
320
321
322
323
324
325
326
327
328
329
330
331
332
333
334
335
336
337
338
339
340
341
342

Component_(#) 1 343 int
0
0
0
0
0
0
0
0
0
0
0
0
0
0
0
0
0
0
0
0
0
0
0
0
0
0
0
0
0
0
0
0
0
0
0
0
0
0
0
0
0
0
0
0
0
0
0
0
0
0
0
0
0
0
0
0
0
0
0
0
0
0
0
0
0
0
0
0
0
0
0
0
0
0
0
0
0
0
0
0
0
0
0
0
0
0
0
0
0
0
0
0
0
0
0
0
0
0
0
0
0
0
0
0
0
0
0
0
0
0
0
0
0
0
0
0
0
0
0
0
0
0
0
0
0
0
0
0
0
0
0
0
0
0
0
0
0
0
0
0
0
0
0
0
0
0
0
0
0
0
0
0
0
0
0
0
0
0
0
0
0
0
0
0
0
0
0
0
0
0
0
0
0
0
0
0
0
0
0
0
0
0
0
0
0
0
0
0
0
0
0
0
0
0
0
0
0
0
0
0
0
0
0
0
0
0
0
0
0
0
0
0
0
0
0
0
0
0
0
0
0
0
0
0
0
0
0
0
0
0
0
0
0
0
0
0
0
0
0
0
0
0
0
0
0
0
0
0
0
0
0
0
0
0
0
0
0
0
0
0
0
0
0
0
0
0
0
0
0
0
0
0
0
0
0
0
0
0
0
0
0
0
0
0
0
0
0
0
0
0
0
0
0
0
0
0
0
0
0
0
0
0
0
0
0
0
0
0
0
0
0
0
0
0
0
0
0
0
0
0
0
0
0
0
0
0
0
0
0
0
0
0
0
0
0
0
0
0
0
0
0
0
0

NodalMass_(kg) 1 343 double
3.15563e-06
1.41304e-05
2.20912e-06
1.71484e-05
8.42e-06
9.09306e-06
9.93033e-06
7.52198e-06
6.81096e-06
5.58223e-06
3.10888e-06
1.07575e-05
4.87011e-06
1.64955e-05
3.0246e-06
8.05984e-06
6.703e-06
1.0877e-05
4.18978e-06
8.16106e-06
6.14143e-06
1.17902e-05
2.23114e-06
4.25176e-06
1.09915e-05
7.41467e-06
4.21871e-06
3.92484e-06
3.08766e-06
1.31268e-05
7.72627e-06
1.65404e-05
1.19037e-05
7.29666e-06
3.81683e-06
1.11001e-05
3.81317e-06
1.39137e-05
6.37414e-06
8.00975e-06
7.6712e-06
1.18847e-05
1.6399e-05
2.78633e-06
8.93599e-06
2.58087e-06
7.57362e-06
4.23241e-06
1.31286e-05
3.80168e-06
2.7746e-06
7.16776e-06
1.21307e-05
5.11765e-06
8.19728e-06
4.58094e-06
2.79503e-06
3.26126e-06
4.12443e-06
2.11915e-06
3.35177e-06
3.61669e-06
1.56838e-05
7.33679e-06
8.24695e-06
5.00369e-06
2.82625e-06
7.20276e-06
3.26815e-06
4.18751e-06
2.02785e-06
2.42152e-06
3.11835e-06
5.97459e-06
5.87101e-06
4.09374e-06
5.45463e-06
2.28825e-06
4.49759e-06
4.38192e-06
4.50892e-06
4.39234e-06
4.27273e-06
5.32031e-06
1.53201e-06
2.38869e-06
2.02885e-06
4.38798e-06
3.17972e-06
3.14298e-06
4.61567e-06
5.87645e-06
8.18088e-06
2.48341e-06
1.53815e-05
3.49683e-06
7.35227e-06
2.01314e-06
2.0408e-06
7.98183e-06
4.41293e-06
7.1389e-06
1.20123e-06
5.03343e-06
1.61257e-06
4.12601e-06
8.73748e-06
4.37849e-06
7.97173e-06
2.13557e-06
3.38137e-06
9.48623e-06
7.40262e-06
1.80226e-06
2.10222e-06
7.98889e-06
1.87983e-06
7.44814e-06
4.19782e-06
2.37156e-06
4.31705e-06
6.06441e-06
4.30905e-06
2.16843e-06
1.8986e-06
1.81294e-06
3.89762e-06
2.44299e-06
1.65628e-06
8.01374e-06
1.64513e-06
2.3931e-06
3.01363e-06
2.99431e-06
1.36541e-06
1.87293e-06
2.09622e-06
1.94762e-06
1.87618e-06
6.37913e-06
4.58628e-06
2.02767e-06
1.61999e-06
2.41284e-06
3.8865e-06
4.44973e-06
2.29839e-06
1.17349e-05
3.11811e-06
1.354e-06
3.45063e-06
1.81846e-06
2.9382e-06
1.37381e-06
2.41464e-06
2.10451e-06
2.63927e-06
2.14166e-06
1.7943e-06
3.19976e-06
1.36989e-06
2.43489e-06
2.08158e-06
1.3601e-06
2.17203e-06
1.89924e-06
3.16996e-06
2.6119e-06
2.37677e-06
1.60225e-06
1.90684e-06
5.49206e-06
1.87878e-06
3.14313e-06
2.97301e-06
1.18454e-06
1.89263e-06
2.04166e-06
2.73572e-06
2.42405e-06
3.23083e-06
3.19752e-06
3.2142e-06
1.94492e-06
1.61196e-06
1.86876e-06
3.22435e-06
2.1114e-06
2.96917e-06
6.15288e-06
2.3097e-06
2.39729e-06
2.38029e-06
2.64508e-06
1.66557e-06
1.82377e-06
2.06583e-06
5.73271e-06
2.08467e-06
2.18324e-06
2.43522e-06
3.1188e-06
3.17316e-06
2.05447e-06
1.9592e-06
3.05718e-06
6.44327e-06
2.08796e-06
2.72615e-06
2.15709e-06
1.86812e-06
2.0028e-06
2.10999e-06
2.88994e-06
2.3222e-06
2.3979e-06
1.97629e-06
6.4127e-06
2.16225e-06
3.29198e-06
2.10223e-06
2.66566e-06
1.94415e-06
2.91865e-06
2.58116e-06
2.11703e-06
2.09534e-06
1.91719e-06
7.06046e-06
2.25203e-06
2.06378e-06
6.28159e-06
2.12147e-06
2.90924e-06
2.12921e-06
6.4487e-06
1.41701e-06
2.0682e-06
6.58062e-06
2.52584e-06
2.39732e-06
7.42191e-07
2.22368e-06
7.06751e-07
7.00657e-07
8.93749e-07
2.53536e-06
2.26535e-06
1.33607e-06
7.84725e-07
2.32303e-06
6.06694e-07
6.68276e-07
6.84307e-07
2.51242e-06
2.31629e-06
7.8367e-07
6.80839e-07
6.22692e-06
6.7471e-07
6.65305e-07
7.01158e-07
1.8232e-06
1.90695e-06
6.86722e-07
7.04792e-07
1.86445e-06
2.28572e-06
6.8045e-07
7.16005e-07
1.82373e-06
6.01079e-07
2.02791e-06
7.4579e-07
5.74423e-07
1.80052e-06
1.454e-06
2.2702e-06
1.80636e-06
2.15356e-06
1.79089e-06
1.79456e-06
6.8231e-07
2.24737e-06
1.45239e-06
1.79556e-06
6.97875e-07
6.24265e-07
6.62717e-07
1.44627e-06
1.40138e-06
2.15258e-06
1.82851e-06
1.3994e-06
1.43932e-06
2.19226e-06
6.97732e-07
1.77726e-06
1.79162e-06
6.54258e-07
7.3397e-07
2.34895e-06
7.10392e-07
6.56982e-07
6.26314e-07
2.18926e-06
6.12493e-07
6.03901e-07
5.92831e-07
5.12031e-07
5.11667e-07
4.9467e-07
4.97016e-07
4.96269e-07
5.33079e-07
4.94191e-07
4.97855e-07
4.86862e-07
4.90626e-07
4.94649e-07
4.94954e-07
4.91922e-07
4.89615e-07
4.96354e-07
4.95189e-07
4.82188e-07
1.10854e-06
5.3299e-07
5.44763e-07
5.36655e-07
5.15417e-07
5.01772e-07
5.53774e-07
5.53774e-07
5.53774e-07
5.53774e-07
5.53774e-07
5.53774e-07
5.50785e-07
5.50785e-07
7.45291e-07
7.11668e-07
4.9897e-07

NodalForce_(N) 3 343 double
5.07505e-07 -1.94707e-07 3.95253e-08
5.08292e-06 -2.75724e-06 1.16562e-06
-3.06793e-05 0.000128368 0.000278096
-4.41011e-06 -3.3188e-06 1.28736e-06
-1.45474e-05 -1.5378e-05 5.31148e-06
-1.03143e-05 -1.40551e-05 5.87332e-06
-4.36336e-07 -3.44225e-05 1.45916e-05
3.57992e-06 -1.71046e-05 7.21649e-06
-1.3443e-05 -2.02202e-05 8.28155e-06
4.63329e-07 -7.53651e-06 3.12815e-06
-9.43789e-06 -4.62757e-06 1.74359e-06
-2.98708e-05 -2.15909e-05 8.07628e-06
-1.65089e-05 -7.76135e-06 2.28635e-06
-1.19344e-05 -2.74896e-06 1.66879e-06
-6.98538e-06 -3.79298e-06 1.84372e-06
5.60974e-06 -2.1846e-05 9.82588e-06
7.06285e-06 -1.54887e-05 6.55399e-06
-5.94623e-06 -2.70731e-06 9.85149e-07
-0.00070797 0.000288143 9.96085e-05
-8.12321e-07 -5.96206e-07 7.9568e-08
-4.38671e-06 -1.86966e-05 7.48012e-06
-2.79088e-05 -4.71741e-05 1.84066e-05
-0.000223185 -0.000844492 -0.000393914
-2.92101e-06 -6.43447e-06 2.25276e-06
-1.14472e-05 -2.06422e-05 9.0223e-06
1.31803e-06 -6.89511e-06 3.95305e-06
-2.68051e-06 -3.29947e-07 1.8928e-07
-7.74943e-06 -6.17298e-06 2.43253e-06
4.17043e-06 -9.47838e-07 6.17866e-07
1.09195e-05 -1.48421e-06 1.06873e-06
1.1171e-05 -5.79782e-06 4.13786e-06
2.98723e-05 -6.09669e-05 2.74446e-05
-1.39684e-05 -4.44767e-05 1.97315e-05
6.37735e-06 -2.9794e-05 1.28773e-05
1.6692e-05 -2.16433e-05 9.0243e-06
2.93791e-05 -3.69209e-05 1.54534e-05
2.02143e-05 -1.67784e-05 6.70332e-06
5.83264e-05 -5.18357e-05 2.30063e-05
-6.45323e-06 -4.53696e-06 1.77154e-06
-1.14024e-05 -8.69975e-06 4.72121e-06
-1.44419e-05 -8.91179e-06 2.48419e-06
1.28313e-05 -1.68907e-05 7.95325e-06
5.29853e-06 -2.62313e-06 6.93328e-07
4.32994e-06 -1.35671e-06 2.62976e-07
1.39627e-05 -8.01974e-06 2.54844e-06
0.000456266 0.000257186 -0.000239745
2.13937e-06 -9.44987e-07 3.34643e-07
0.000123588 0.00049114 0.000177093
-9.62348e-07 -2.60012e-06 1.1828e-06
-9.36293e-07 -3.48108e-07 7.8401e-08
8.19136e-07 -8.1855e-06 3.90232e-06
-1.28085e-06 -1.48404e-05 7.47103e-06
6.87819e-06 -1.45324e-06 6.39278e-07
2.48611e-06 -1.81665e-06 7.53457e-07
9.70395e-07 -7.60659e-07 3.26252e-07
-1.08632e-06 -2.58428e-05 1.12239e-05
0.000293942 0.00037482 0.000384651
1.7175e-06 -4.06639e-07 1.31549e-07
-8.7045e-05 -9.56568e-05 -0.000163344
3.32139e-06 -1.18801e-05 5.16887e-06
-3.80115e-06 -1.53876e-06 9.67845e-07
-1.01575e-05 -2.26467e-05 8.96595e-06
-2.27131e-05 -6.81415e-05 2.74824e-05
-5.68002e-06 -3.20568e-05 1.32895e-05
-1.24436e-05 -8.97813e-06 2.54016e-06
3.51744e-06 -1.56174e-07 5.08844e-08
-6.15573e-06 -2.07435e-06 5.04421e-07
-1.15012e-05 -1.57027e-05 7.49182e-06
9.35336e-06 -1.83847e-05 7.80962e-06
-1.74932e-05 -2.11411e-05 8.04247e-06
6.13807e-07 -1.39285e-06 6.58007e-07
-4.27511e-06 -1.38246e-06 6.46947e-07
-5.39903e-06 -2.40837e-06 5.46218e-07
-3.09111e-06 -7.03982e-06 3.69617e-06
-1.9395e-06 -3.03519e-06 1.19133e-06
0.000588842 0.000223363 0.000269291
-2.45832e-06 -7.68831e-06 3.21636e-06
1.52583e-07 -1.47317e-07 5.97633e-08
4.36095e-06 -9.16878e-06 4.31694e-06
1.19739e-05 -9.83373e-06 4.57544e-06
8.38462e-06 -5.24997e-06 2.29772e-06
2.96886e-06 -4.67058e-06 2.00609e-06
1.43033e-05 -2.40334e-05 1.01894e-05
4.65495e-06 -2.14838e-06 1.10786e-06
-4.51299e-05 -0.00067453 0.000126388
1.53432e-06 -2.52363e-08 1.4655e-08
5.83473e-05 -0.000358649 0.000193254
6.83191e-06 -0.00018174 8.39517e-05
-0.000104875 1.7863e-05 -0.000125642
2.29098e-06 -1.03109e-06 5.75323e-07
-5.69623e-07 -2.77111e-07 1.1125e-07
4.04798e-06 -8.3493e-06 3.69734e-06
2.68946e-07 -4.16434e-06 2.79543e-06
-8.83828e-06 -7.94773e-06 3.41064e-06
-5.89596e-05 -6.55239e-05 2.55363e-05
-1.18228e-05 -1.27189e-05 4.6836e-06
-1.48196e-05 -1.93711e-05 7.2048e-06
-2.19178e-06 -1.21272e-05 5.00971e-06
-8.9077e-05 -7.02327e-05 -7.83461e-05
1.71984e-05 -1.91665e-05 7.59514e-06
-4.83996e-06 -1.15693e-05 4.59093e-06
8.14918e-08 -1.68896e-05 7.88874e-06
2.21548e-06 -8.14086e-07 2.47849e-07
2.31458e-05 -2.20941e-05 8.90808e-06
-5.33644e-07 -9.8992e-07 3.30783e-07
-1.10006e-05 -1.16729e-05 4.78773e-06
2.7724e-05 -2.06428e-05 8.48196e-06
-2.11505e-05 -2.19821e-05 8.20562e-06
-2.36914e-05 -2.18051e-05 7.61588e-06
-1.0203e-06 -7.68639e-08 5.66009e-08
1.32028e-05 -1.00855e-05 4.93832e-06
2.61579e-05 -1.48119e-05 7.02534e-06
1.56149e-05 -1.44168e-05 7.72454e-06
-0.000203547 -0.000279933 -0.000293806
-4.61784e-06 -1.32299e-05 5.27739e-06
-1.90082e-06 -9.29301e-07 5.23954e-07
8.78576e-06 -1.06712e-05 4.57554e-06
1.26704e-05 -3.08033e-05 1.3126e-05
2.12558e-05 -9.87497e-06 4.23409e-06
-1.14037e-05 -8.64388e-06 2.87231e-06
-1.50331e-05 -2.69368e-05 1.06096e-05
-9.66616e-06 -2.62441e-05 1.09453e-05
-3.14856e-06 -5.23186e-07 1.37384e-07
0.000182882 0.000193537 -5.56477e-05
-1.35442e-06 -2.29599e-07 7.26838e-09
3.28224e-06 -1.01674e-05 4.34088e-06
1.70192e-05 -8.10391e-06 4.04562e-06
-0.000105053 -0.000478323 -6.71142e-05
3.03016e-08 -1.01492e-07 4.93614e-08
1.67851e-05 -8.46517e-06 2.80603e-06
6.45927e-06 -7.30669e-06 3.05469e-06
6.68682e-06 -1.33985e-05 5.78559e-06
-1.19045e-05 -7.47576e-06 2.99667e-06
-6.98875e-06 -9.40352e-06 4.40756e-06
-6.12174e-05 -0.000785807 -0.000111832
9.80617e-07 -6.99981e-08 4.74845e-08
9.49724e-05 -0.000157643 -0.000265532
-6.87728e-06 -1.00055e-05 3.87916e-06
5.97555e-06 -1.05816e-05 4.57433e-06
1.69582e-05 -2.68397e-05 1.17025e-05
-4.31438e-06 -1.91652e-05 8.67528e-06
-9.66561e-06 -7.99353e-06 3.13192e-06
-8.93863e-06 -8.28734e-06 2.95164e-06
-1.02231e-05 -1.50927e-05 5.92018e-06
-0.000610249 8.41024e-05 0.000166328
-2.14886e-05 -1.25339e-05 4.24286e-06
-5.84627e-06 -3.73366e-06 1.09821e-06
1.27445e-05 -4.51381e-05 1.94622e-05
1.92776e-06 -1.82863e-05 7.63683e-06
3.27915e-06 -1.65642e-06 4.99031e-07
7.36473e-06 -1.72161e-06 4.95606e-07
-9.28766e-07 -1.55309e-07 7.11791e-08
3.80438e-05 -0.000386164 -0.000113734
5.02862e-07 -7.77538e-06 3.31381e-06
1.2228e-05 -7.49754e-06 2.91467e-06
3.24878e-06 -7.15685e-06 3.25272e-06
0.000375108 -0.00043266 0.000170599
-0.00103102 -1.43853e-05 0.000258071
-1.59491e-06 -4.79702e-06 2.43851e-06
-7.73394e-06 -1.90265e-05 7.80732e-06
-4.38577e-06 -2.23009e-06 5.50336e-07
2.76597e-06 -9.97272e-07 3.64325e-07
-2.60174e-06 -8.32963e-06 3.36716e-06
-2.80408e-07 -2.51818e-06 1.33869e-06
2.84057e-06 -1.21343e-05 5.25874e-06
1.31926e-06 -8.07128e-06 3.65703e-06
4.16552e-07 -1.00816e-05 4.5624e-06
3.67964e-06 -1.21676e-06 9.75639e-07
1.2574e-05 -8.11734e-06 3.83888e-06
9.4775e-06 -5.75898e-06 2.45034e-06
5.96665e-06 -3.66931e-06 1.97989e-06
1.16796e-05 -1.53674e-05 6.9075e-06
-5.50358e-06 -7.89131e-06 3.1006e-06
-1.98112e-06 -1.12936e-06 9.07969e-07
-2.31477e-06 -2.62306e-06 1.80522e-06
-1.81164e-06 -1.16333e-06 7.48309e-07
6.04176e-06 -6.68594e-06 2.93298e-06
-4.11062e-06 -1.33941e-06 2.9955e-07
4.63608e-06 -1.56706e-05 6.63124e-06
7.85381e-05 -0.000639684 -0.000478454
-6.74944e-06 -1.86757e-05 7.94719e-06
3.95837e-06 -1.44204e-05 6.35e-06
-1.67059e-06 -1.96067e-05 7.98198e-06
0.000138735 -0.000519617 0.000151582
5.05609e-07 -6.58087e-07 2.9596e-07
-1.04049e-05 -7.84408e-06 2.70857e-06
-1.29154e-05 -1.46638e-05 6.05286e-06
-5.36547e-06 -9.83058e-06 4.25482e-06
9.76184e-06 -6.25239e-06 2.09719e-06
1.08213e-05 -9.46106e-06 3.59574e-06
8.85252e-06 -4.8801e-06 1.64954e-06
8.67851e-06 -7.32819e-06 2.78261e-06
-3.53624e-07 -7.13731e-07 6.94194e-07
2.72467e-06 -2.47485e-06 1.6263e-06
-3.02653e-06 -1.36987e-06 3.32455e-07
-4.13812e-06 -1.70208e-06 4.35461e-07
2.22619e-06 -1.22202e-05 5.14981e-06
1.26485e-05 -4.72509e-06 2.45873e-06
-1.08535e-08 -1.21356e-05 5.13263e-06
5.49071e-06 -5.72943e-06 2.92862e-06
1.45911e-05 -1.08751e-05 4.45261e-06
4.05234e-05 -0.000118263 0.000228372
1.96913e-06 -1.58393e-07 1.80424e-08
-2.55095e-05 0.000234931 -5.91894e-05
6.5691e-06 -2.31645e-06 1.19757e-06
1.10067e-05 -3.89132e-06 1.55132e-06
4.38762e-06 -8.59133e-06 4.53208e-06
3.1406e-06 -6.78828e-06 3.20185e-06
-8.87175e-06 -7.12409e-06 2.29847e-06
-8.20053e-06 -5.65127e-06 1.64755e-06
1.35666e-06 -9.56281e-08 -1.10975e-08
-5.0404e-07 -9.55017e-06 4.02503e-06
-2.2809e-06 -1.21326e-05 5.14037e-06
1.28214e-05 -9.20718e-06 3.47797e-06
-5.96081e-06 -4.75101e-06 2.32438e-06
-3.04033e-06 -1.42229e-06 4.6363e-07
-7.2116e-06 -1.20158e-05 4.90465e-06
4.1357e-07 -1.6037e-06 7.82096e-07
2.3946e-06 -4.53674e-06 2.42096e-06
9.69609e-06 -1.35893e-05 6.30567e-06
5.99943e-06 -4.07263e-06 1.60603e-06
-1.88653e-06 -1.54368e-05 6.52213e-06
8.14802e-06 -3.821e-06 1.34748e-06
-1.20409e-05 -1.09056e-05 3.86626e-06
4.93846e-06 -1.26682e-06 2.95616e-07
-0.000431841 -9.23388e-05 3.43932e-05
1.46278e-07 -2.25501e-06 1.30237e-06
-7.85198e-06 -4.70108e-06 1.3685e-06
2.34253e-06 -4.33615e-06 1.81742e-06
6.4558e-06 -2.81495e-06 7.92481e-07
-6.03829e-06 -3.40941e-06 8.83669e-07
-1.21015e-07 -3.81369e-06 1.73031e-06
0.000365409 -0.000586509 -2.10327e-05
5.94107e-05 -5.03715e-05 0.000145432
4.28649e-06 -2.71145e-06 1.84239e-06
8.70459e-06 -8.3654e-06 3.84197e-06
-3.95204e-06 -3.45677e-06 1.23991e-06
2.11148e-06 -1.17696e-05 5.01147e-06
4.41422e-06 -3.91981e-06 1.56852e-06
-3.46798e-06 -4.49951e-06 2.53839e-06
5.85345e-06 -1.38081e-05 5.89987e-06
7.87579e-05 -1.42328e-05 4.84293e-05
1.02849e-05 -9.6159e-06 4.41834e-06
-8.83045e-07 -8.90707e-07 3.62626e-07
0.000355203 -0.000277084 -1.47809e-06
1.52713e-06 -1.54486e-06 7.33024e-07
0.000420873 -0.000384348 -8.49183e-05
9.5389e-06 -1.27712e-05 5.58473e-06
5.25999e-06 -7.62871e-06 3.39977e-06
0.000139669 -0.000223186 -8.20513e-05
1.12028e-07 -3.95425e-06 1.87458e-06
-0.000235536 -0.000260371 -0.000233915
-2.59533e-06 -4.34128e-06 1.6837e-06
3.0439e-06 -3.9383e-06 1.62312e-06
6.2823e-06 -2.36169e-06 1.54767e-06
-4.13216e-06 -1.38397e-05 5.72726e-06
-1.41927e-06 -1.79976e-06 7.2036e-07
-0.000420292 -0.000491257 -3.30466e-05
-3.65563e-06 -4.69815e-06 1.7689e-06
-2.98367e-06 -1.49588e-06 4.88045e-07
-3.47859e-06 -4.29343e-06 1.61847e-06
-0.000332396 -0.000300159 -1.79763e-05
1.19263e-05 -8.48513e-06 3.60993e-06
1.0543e-05 -1.08934e-05 4.68965e-06
-3.13332e-06 -4.43288e-06 1.70412e-06
1.61563e-06 -4.11622e-06 1.80287e-06
-2.50871e-07 -2.767e-07 1.34032e-08
0.000156759 0.000297677 -2.17076e-05
4.71343e-05 -2.18995e-05 -6.7008e-05
0.000183069 -0.000190345 -0.000117552
1.06597e-05 -8.30474e-06 3.70612e-06
3.50534e-06 -3.47587e-06 1.42283e-06
6.51443e-06 -2.56072e-06 6.92483e-07
-8.56543e-08 -4.16235e-06 1.87887e-06
-8.60556e-05 -7.06727e-05 -3.48105e-05
1.28405e-05 0.000357907 7.86551e-05
-1.01392e-06 -2.40903e-07 -1.90576e-08
-1.16688e-06 -2.09197e-07 8.77634e-08
6.24298e-06 -8.39094e-06 3.67607e-06