# vtk DataFile Version 4.2
vtk output
ASCII
DATASET UNSTRUCTURED_GRID

POINTS 343 double
0.00144831 0.00420847 -1.32723e-05
0.00279831 0.00500831 0.00215313
0 0.00419538 0.00112517
0.00249054 0.00197583 0.00192146
0.00650553 0.00242684 0.00499796
0.00650266 0.00387066 0.00639325
0.00940392 0.0048375 0.00497158
0.00777791 0.00490795 0.00362573
0.00846231 0.00332197 0.00694014
0.0063001 0.00504491 0.00496515
0.00520605 0.00113474 0.0100181
0.00659976 0.00209802 0.00792412
0.00523966 -3.19983e-06 0.00832356
0.00257929 0.00202252 0.00801202
0.00534561 0.00255678 0.0100192
0.00859879 0.00653791 0.00698043
0.00798827 0.00626375 0.00515521
0.00290138 0.00220637 0.00512536
0 0.00143586 0.00417514
0.00205508 0.0034834 0.00402066
0.00848846 0.00322124 0.00307745
0.00953785 0.002221 0.0050383
0 0.00270918 0.00154168
0.00522943 0.00144153 -7.41537e-05
0.0063002 0.00220665 0.00212367
0.0050221 0.00356169 0.00154273
0.00173138 1.35504e-05 0.00404813
0.00526422 -5.3141e-06 0.00162886
0.00334338 0.00698327 -4.382e-05
0.00249324 0.0080751 0.00192378
0.00517814 0.00629919 0.0015826
0.00976943 0.00812369 0.008084
0.00974613 0.00488525 0.00810844
0.0102408 0.00618206 0.0059582
0.0119621 0.00901285 0.00414382
0.00933016 0.00776079 0.00493282
0.0104034 0.0101853 0.00411304
0.00978267 0.00811393 0.00189219
0.00448858 0.00306747 0.00693936
0.00557209 0.00369844 0.00833409
0.00493664 0.00161822 0.00594475
0.00626171 0.00773743 0.00768823
0.00255097 0.00802757 0.00796971
0.00358188 0.0100426 0.00710328
0.00495867 0.00845505 0.00593162
0 0.00695361 0.00262895
0.00211898 0.00625824 0.00406955
0 0.0040177 0.00850214
0.0029654 0.0050129 0.00763947
0.00183355 0.0041913 0.00998429
0.00876134 0.00722484 0.0101027
0.00758326 0.00604424 0.0084672
0.00263603 0.00796311 0.0047205
0.00388327 0.00697605 0.00643866
0.00203869 0.00609646 0.0059098
0.0119319 0.00588851 0.00843896
0 0.00718191 0.00711644
0.00203922 0.00579251 -2.01454e-05
0 0.00577432 0.00158701
0.0119455 0.00730727 0.00719807
0.00360453 0.00337622 0.0100015
0.0119519 0.00138354 0.0041232
0.00987527 0.00193875 0.0018502
0.0102688 0.00354116 0.00393444
0.00473884 0.00166548 0.00409673
0.00193819 0.0100186 0.00579892
0.00356288 7.19909e-06 0.00710375
0.0075803 0.0042197 0.00842132
0.0119805 0.00741929 0.00414831
0.0103928 -8.03996e-05 0.00411239
0.00423505 0.00289872 -5.90559e-05
0.0033921 0.00155743 0.010001
0.0035858 3.5786e-06 0.00280622
0.00602699 0.00524291 0.00756335
0.00403825 0.00317694 0.00313933
0 0.00849157 0.00581511
0.00614427 0.00370725 0.00373744
0.00198183 0.00272826 -1.98942e-05
0.00713083 0.00840441 0.0100712
0.00736359 0.010105 0.00856091
0.00526089 0.0100639 0.00832607
0.00500185 0.00855037 0.0100227
0.0119529 0.00864706 0.00583981
0.00402217 0.00686991 0.00312148
0 0.00748929 0.00137438
0.00176711 0.00750423 -1.66757e-05
0 0.00287343 0.00335182
0 0.00580816 0.00831736
0 0.00429792 0.00253898
0.00323376 0.00432584 -4.25152e-05
0.00183379 0.00583397 0.00998515
0.00649819 0.00653366 0.00639177
0.0045482 0.00654999 0.00823322
0.00848684 0.00262874 0.0100852
0.00977508 0.00193737 0.00811664
0.00857892 -4.29823e-05 0.00299503
0.00749155 0.00165852 0.00354628
0.0119671 0.00286234 0.00326286
0 0.00140616 0.00256446
0.00790325 0.00831831 0.00642754
0.00721141 0.0014248 -0.000114561
0.00751494 0.00357448 0.00149984
0.00399941 0.0100469 0.00580134
0.0103861 0.0101826 0.005842
0.00324644 0.00141805 -4.27475e-05
0.00739355 -3.30325e-05 0.00139596
0.00780784 0.0083798 0.00355285
0.010375 -7.88811e-05 0.00584613
0.00769887 0.0016681 0.00636831
0.0017948 0.00258035 0.00998561
0.00876659 0.00728095 -0.000142768
0.00648737 0.00775855 0.00209128
0.00741604 0.00615966 0.00149985
0 0.00686719 0.00578184
0.0119495 0.0013496 0.00245043
0.00227766 0.00362983 0.0063896
0.0119627 0.00864516 0.00251185
0.0102799 0.00627132 0.00407537
0.00741149 0.0101123 0.00139053
0.00854406 -4.83705e-05 0.00695778
0.0119378 0.00138719 0.00584984
0.0102319 0.00358928 0.00608051
0.00192534 1.49092e-05 0.00579987
0 0.0013659 0.00748679
0.00174704 1.19422e-05 0.00751111
0.011972 0.00699315 0.005799
0.00722559 0.00858029 -0.000122552
0 0.0075208 0.00859127
0.00174615 0.00749763 0.0099875
0.00535836 0.00826254 0.00358402
0.010394 0.0101788 0.00758976
0.0119223 0.0087899 0.00762501
0.00710015 0.00158593 0.0100596
0.0088596 0.00422213 0.0100962
0 0.0057735 0.00666667
0.00175808 0.0100176 0.0075117
0 0.00863025 0.00752641
0.0104211 -8.16557e-05 0.00239569
0.0119808 0.00709161 0.00251811
0.0103335 0.00643691 0.00203674
0.0102978 0.00589843 0.0101386
0.00909456 0.00135513 0.0101035
0.01038 -8.00775e-05 0.0075844
0.0119066 0.00131287 0.00758203
0 0.00143551 0.00581971
0.0073571 -3.08195e-05 0.00855182
0.00528888 -9.40565e-06 0.0033524
0.00974872 0.00475634 0.00190792
0.0119757 0.00432674 0.00241271
0.00530922 0.01007 0.00665468
0.00360416 0.0100442 0.0028027
0.00168418 1.20995e-05 0.00240602
0 0.00727418 0.00419576
0.0119577 0.0058468 0.00672817
0.00857785 0.0101388 0.00299614
0.00912855 0.00874899 0.0101146
0 0.00574334 0.00336387
0 0.0043297 0.00416652
0.00840547 0.00584412 0.0100937
0.0119378 0.00301093 0.00699183
0.00528946 -8.22937e-06 0.00665639
0.00313523 0.0100388 0.00860128
0.00916836 0.00133767 -0.000148422
0.00711978 0.00672892 0.0100665
0.0119154 0.00764876 0.00872307
0.010396 0.00766763 0.010146
0.00852932 0.00302689 -0.000134901
0.00426087 0.00578142 -5.87329e-05
0.00922659 0.00875755 -0.00015203
0.00919668 0.010157 0.00126091
0.00720108 0.00693899 -0.000118784
0.00863407 0.00645335 0.00294617
0.00919645 -5.67357e-05 0.00126046
0.00362303 0.0050248 0.0100023
0.00539389 0.00586969 0.0100302
0.00539266 0.00419651 0.0100274
0.00915419 0.0101434 0.00870883
0.00311869 4.53102e-06 0.00859831
0.0119889 0.00581015 0.00327395
0 0.00302218 0.00691532
0.0119204 0.00403437 0.00862748
0.0103427 0.00404048 -0.000179312
0.0119594 0.00269383 0.00138246
0 0.00244495 0.00857025
0.00307637 0.00859704 0.0100018
0.00913811 -5.55227e-05 0.00869922
0.0102483 0.00261422 0.010134
0.0106604 0.00422161 0.0101456
0.007058 0.0101008 0.0058252
0.0065131 0.0076492 0.00500164
0.00703441 0.0101027 0.00416711
0.00855677 0.0101327 0.00696067
0.00379336 0.00694376 0.0100075
0.00524883 0.00436711 -7.76336e-05
0.00359019 6.87576e-06 0.00438048
0.00398214 4.51706e-06 0.00580222
0.0119625 0.00422093 0.000952176
0.00460544 0.00838562 0.00153504
0.0119794 0.00436447 0.00412265
0.00825085 0.00583796 -0.000135009
0.0104313 0.0101878 0.00239918
0 0.00848692 0.00262374
0.00173676 0.0100154 0.00404575
0 0.00885053 0.00419359
0.00526708 0.00891129 -8.0306e-05
0.00529283 0.0100701 0.00162499
0.00629579 0.00483526 0.00230521
0.00889491 0.00456342 -0.000145416
0.00701508 -2.50185e-05 0.00416181
0.00704114 -2.47942e-05 0.00582127
0.001688 0.0100157 0.0024045
0.0104111 0.00243022 -0.00018034
0.0119432 0.00455899 0.0073086
0.00873751 0.0101437 0.00497244
0.00708543 0.00338838 0.010055
0.00311496 2.49127e-06 0.00132621
0.0118997 0.00241731 0.00869796
0.00306663 0.00481735 0.00497617
0.00725631 0.00436447 -0.000116211
0.0101454 0.00589202 -0.000170766
0.00680766 0.0100935 0.00722881
0.0119627 0.00436393 0.00585903
0.00674412 0.0100968 0.00270568
0.00873533 -5.00556e-05 0.00496666
0.0036079 0.0100427 0.00437575
0 0.00452174 0.00721958
0.00561981 0.00727129 0.0100358
0.00679325 -2.17142e-05 0.0072315
0.00459448 0.00511099 0.00356139
0.00536008 0.0100745 0.00497647
0.00533683 -1.25522e-05 0.00497801
0.00466648 0.00525331 0.0061472
0 0.005744 0.00499998
0 0.00433013 0.00583333
0.0062638 0.0057973 -9.87121e-05
0.00628269 0.00639419 0.0034984
0.00671881 -2.1986e-05 0.00270705
0.0119814 0.0058052 0.0049909
0.00470041 0.00644739 0.00481016
0.00709278 0.00504209 0.0100585
0.0119773 0.00584789 0.00142464
0 0.00666667 0
0.010434 0.00764332 -0.000177654
0.00418157 -5.57084e-06 -5.21325e-05
0 0.01 0.00666667
0.00616125 0.010083 0.010047
0 0.00288419 0.00499914
0.0119662 0.00764048 0.00120395
0.0119534 0.00677746 -0.000198028
0 0.005 0.01
0.00624534 0.00290071 -9.58621e-05
0 0.005 0
0.0119146 -0.000118868 0.00324701
0.0118998 0.0102201 0.00673314
0.00528054 0.00732682 -8.08027e-05
0.0119617 0.00286465 0.00498936
0.00620426 -2.54585e-05 -8.65451e-05
0 0 0.00666667
0.00482906 0.003648 0.00519589
0.00615185 -1.81366e-05 0.0100343
0.0118865 -0.000115937 0.00673276
0 0 0.005
0.0106234 0.0101958 0.00106647
0.0119488 0.00895301 0.0010478
0.0119066 -0.0001165 0.00499285
0.0119455 0.00505272 -0.000204116
0.00156861 0.00123218 -1.48884e-05
0 0.00122008 0.00122008
0 0.00333333 0.01
0 0.00666667 0.01
0.0106187 0.00893831 -0.000182293
0.0119283 0.0102247 0.00325441
0.00531814 0.0100722 0.00335181
0.0118771 0.00677007 0.0101851
0 0.00333333 0
0 0.00122008 0.00877992
0.001553 8.73037e-06 0.00876756
0.0015566 0.00123261 0.00998798
0.0105742 0.0101796 0.00890547
0.00156091 0.00879197 0.00998938
0 0.00877992 0.00877992
0.0119003 0.0089436 0.0089213
0.00820469 0.0101361 -0.000130853
0.0119412 0.00115326 0.00105277
0.00156172 0.0100165 0.00876884
0.0105698 0.00892458 0.0101538
0.0118785 0.00505134 0.0101823
0 0 0.00333333
0.00818966 -5.11212e-05 -0.000121956
0.0106151 -8.75295e-05 0.00106626
0.00155177 8.45782e-06 0.00119997
0 0.00877992 0.00122008
0.00156839 0.00879426 -1.4776e-05
0.00155539 0.0100157 0.00119812
0.0118821 0.00116036 0.00891711
0.0105502 0.00117583 0.0101432
0.00812175 -4.29319e-05 0.0100783
0.0106255 0.00116503 -0.000183395
0.0105571 -8.2368e-05 0.00889799
0.0119399 0.00333415 -0.000205848
0.00416188 0.0100497 0.010011
0.00313092 0.0100379 0.00132418
0.00813269 0.0101212 0.0100906
0.011869 0.00332561 0.0101769
0 0.01 0.005
0.00333248 0.00852141 -4.2768e-05
0.0119203 0.0102244 0.0049834
0 0.01 0.00333333
0 0.00166667 0
0.0119119 -0.000117304 0.00151774
0 0.00166667 0.01
0 0.00833333 0
0.0119313 0.00850074 -0.00021
0.0118585 -0.000112342 0.00845741
0.0119232 0.0102237 0.00151423
0.0118743 0.0102143 0.00846289
0.002114 0.0100265 0.00999174
0 0.01 0.00833333
0.0101076 0.0101888 -0.000164049
0.0101021 -8.29953e-05 -0.000164317
0.0100276 -7.21071e-05 0.0101266
0.0100469 0.010165 0.0101399
0 0 0.00833333
0.0118695 0.00848 0.0101871
0.00211963 2.08357e-06 -2.01109e-05
0 0 0.00166667
0.00420388 0.0100542 -5.72989e-05
0.0118529 0.00162352 0.0101767
0.0119262 0.00161535 -0.000204076
0.00210394 5.75946e-06 0.00998982
0.00212816 0.0100251 -2.21135e-05
0 0.01 0.00166667
0.0118518 0.0102084 0.0101856
0 0 0.01
0.0119089 0.010223 -0.000204996
0.0118343 -0.000107921 0.0101746
0 0.01 0.01
0.0119062 -0.000122464 -0.000198198
0 0.01 0
0 0 0
0.00622979 0.0100928 -9.78989e-05
0.00414329 3.88503e-06 0.0100075
0 0.00833333 0.01

CELLS 343 686
1 0
1 1
1 2
1 3
1 4
1 5
1 6
1 7
1 8
1 9
1 10
1 11
1 12
1 13
1 14
1 15
1 16
1 17
1 18
1 19
1 20
1 21
1 22
1 23
1 24
1 25
1 26
1 27
1 28
1 29
1 30
1 31
1 32
1 33
1 34
1 35
1 36
1 37
1 38
1 39
1 40
1 41
1 42
1 43
1 44
1 45
1 46
1 47
1 48
1 49
1 50
1 51
1 52
1 53
1 54
1 55
1 56
1 57
1 58
1 59
1 60
1 61
1 62
1 63
1 64
1 65
1 66
1 67
1 68
1 69
1 70
1 71
1 72
1 73
1 74
1 75
1 76
1 77
1 78
1 79
1 80
1 81
1 82
1 83
1 84
1 85
1 86
1 87
1 88
1 89
1 90
1 91
1 92
1 93
1 94
1 95
1 96
1 97
1 98
1 99
1 100
1 101
1 102
1 103
1 104
1 105
1 106
1 107
1 108
1 109
1 110
1 111
1 112
1 113
1 114
1 115
1 116
1 117
1 118
1 119
1 120
1 121
1 122
1 123
1 124
1 125
1 126
1 127
1 128
1 129
1 130
1 131
1 132
1 133
1 134
1 135
1 136
1 137
1 138
1 139
1 140
1 141
1 142
1 143
1 144
1 145
1 146
1 147
1 148
1 149
1 150
1 151
1 152
1 153
1 154
1 155
1 156
1 157
1 158
1 159
1 160
1 161
1 162
1 163
1 164
1 165
1 166
1 167
1 168
1 169
1 170
1 171
1 172
1 173
1 174
1 175
1 176
1 177
1 178
1 179
1 180
1 181
1 182
1 183
1 184
1 185
1 186
1 187
1 188
1 189
1 190
1 191
1 192
1 193
1 194
1 195
1 196
1 197
1 198
1 199
1 200
1 201
1 202
1 203
1 204
1 205
1 206
1 207
1 208
1 209
1 210
1 211
1 212
1 213
1 214
1 215
1 216
1 217
1 218
1 219
1 220
1 221
1 222
1 223
1 224
1 225
1 226
1 227
1 228
1 229
1 230
1 231
1 232
1 233
1 234
1 235
1 236
1 237
1 238
1 239
1 240
1 241
1 242
1 243
1 244
1 245
1 246
1 247
1 248
1 249
1 250
1 251
1 252
1 253
1 254
1 255
1 256
1 257
1 258
1 259
1 260
1 261
1 262
1 263
1 264
1 265
1 266
1 267
1 268
1 269
1 270
1 271
1 272
1 273
1 274
1 275
1 276
1 277
1 278
1 279
1 280
1 281
1 282
1 283
1 284
1 285
1 286
1 287
1 288
1 289
1 290
1 291
1 292
1 293
1 294
1 295
1 296
1 297
1 298
1 299
1 300
1 301
1 302
1 303
1 304
1 305
1 306
1 307
1 308
1 309
1 310
1 311
1 312
1 313
1 314
1 315
1 316
1 317
1 318
1 319
1 320
1 321
1 322
1 323
1 324
1 325
1 326
1 327
1 328
1 329
1 330
1 331
1 332
1 333
1 334
1 335
1 336
1 337
1 338
1 339
1 340
1 341
1 342

CELL_TYPES 343
1
1
1
1
1
1
1
1
1
1
1
1
1
1
1
1
1
1
1
1
1
1
1
1
1
1
1
1
1
1
1
1
1
1
1
1
1
1
1
1
1
1
1
1
1
1
1
1
1
1
1
1
1
1
1
1
1
1
1
1
1
1
1
1
1
1
1
1
1
1
1
1
1
1
1
1
1
1
1
1
1
1
1
1
1
1
1
1
1
1
1
1
1
1
1
1
1
1
1
1
1
1
1
1
1
1
1
1
1
1
1
1
1
1
1
1
1
1
1
1
1
1
1
1
1
1
1
1
1
1
1
1
1
1
1
1
1
1
1
1
1
1
1
1
1
1
1
1
1
1
1
1
1
1
1
1
1
1
1
1
1
1
1
1
1
1
1
1
1
1
1
1
1
1
1
1
1
1
1
1
1
1
1
1
1
1
1
1
1
1
1
1
1
1
1
1
1
1
1
1
1
1
1
1
1
1
1
1
1
1
1
1
1
1
1
1
1
1
1
1
1
1
1
1
1
1
1
1
1
1
1
1
1
1
1
1
1
1
1
1
1
1
1
1
1
1
1
1
1
1
1
1
1
1
1
1
1
1
1
1
1
1
1
1
1
1
1
1
1
1
1
1
1
1
1
1
1
1
1
1
1
1
1
1
1
1
1
1
1
1
1
1
1
1
1
1
1
1
1
1
1
1
1
1
1
1
1
1
1
1
1
1
1
1
1
1
1
1
1
1
1
1
1
1
1
1
1
1
1
1
1
1
1
1
1
1
1
1
1
1
1
1
1

POINT_DATA 343
FIELD FieldData 8

NodeID_(#) 1 343 int
0
1
2
3
4
5
6
7
8
9
10
11
12
13
14
15
16
17
18
19
20
21
22
23
24
25
26
27
28
29
30
31
32
33
34
35
36
37
38
39
40
41
42
43
44
45
46
47
48
49
50
51
52
53
54
55
56
57
58
59
60
61
62
63
64
65
66
67
68
69
70
71
72
73
74
75
76
77
78
79
80
81
82
83
84
85
86
87
88
89
90
91
92
93
94
95
96
97
98
99
100
101
102
103
104
105
106
107
108
109
110
111
112
113
114
115
116
117
118
119
120
121
122
123
124
125
126
127
128
129
130
131
132
133
134
135
136
137
138
139
140
141
142
143
144
145
146
147
148
149
150
151
152
153
154
155
156
157
158
159
160
161
162
163
164
165
166
167
168
169
170
171
172
173
174
175
176
177
178
179
180
181
182
183
184
185
186
187
188
189
190
191
192
193
194
195
196
197
198
199
200
201
202
203
204
205
206
207
208
209
210
211
212
213
214
215
216
217
218
219
220
221
222
223
224
225
226
227
228
229
230
231
232
233
234
235
236
237
238
239
240
241
242
243
244
245
246
247
248
249
250
251
252
253
254
255
256
257
258
259
260
261
262
263
264
265
266
267
268
269
270
271
272
273
274
275
276
277
278
279
280
281
282
283
284
285
286
287
288
289
290
291
292
293
294
295
296
297
298
299
300
301
302
303
304
305
306
307
308
309
310
311
312
313
314
315
316
317
318
319
320
321
322
323
324
325
326
327
328
329
330
331
332
333
334
335
336
337
338
339
340
341
342

Component_(#) 1 343 int
0
0
0
0
0
0
0
0
0
0
0
0
0
0
0
0
0
0
0
0
0
0
0
0
0
0
0
0
0
0
0
0
0
0
0
0
0
0
0
0
0
0
0
0
0
0
0
0
0
0
0
0
0
0
0
0
0
0
0
0
0
0
0
0
0
0
0
0
0
0
0
0
0
0
0
0
0
0
0
0
0
0
0
0
0
0
0
0
0
0
0
0
0
0
0
0
0
0
0
0
0
0
0
0
0
0
0
0
0
0
0
0
0
0
0
0
0
0
0
0
0
0
0
0
0
0
0
0
0
0
0
0
0
0
0
0
0
0
0
0
0
0
0
0
0
0
0
0
0
0
0
0
0
0
0
0
0
0
0
0
0
0
0
0
0
0
0
0
0
0
0
0
0
0
0
0
0
0
0
0
0
0
0
0
0
0
0
0
0
0
0
0
0
0
0
0
0
0
0
0
0
0
0
0
0
0
0
0
0
0
0
0
0
0
0
0
0
0
0
0
0
0
0
0
0
0
0
0
0
0
0
0
0
0
0
0
0
0
0
0
0
0
0
0
0
0
0
0
0
0
0
0
0
0
0
0
0
0
0
0
0
0
0
0
0
0
0
0
0
0
0
0
0
0
0
0
0
0
0
0
0
0
0
0
0
0
0
0
0
0
0
0
0
0
0
0
0
0
0
0
0
0
0
0
0
0
0
0
0
0
0
0
0
0
0
0
0
0
0
0
0
0
0
0
0
0
0
0
0
0
0
0
0
0
0
0
0
0
0
0
0
0
0

NodalMass_(kg) 1 343 double
3.15563e-06
1.41304e-05
2.20912e-06
1.71484e-05
8.42e-06
9.09306e-06
9.93033e-06
7.52198e-06
6.81096e-06
5.58223e-06
3.10888e-06
1.07575e-05
4.87011e-06
1.64955e-05
3.0246e-06
8.05984e-06
6.703e-06
1.0877e-05
4.18978e-06
8.16106e-06
6.14143e-06
1.17902e-05
2.23114e-06
4.25176e-06
1.09915e-05
7.41467e-06
4.21871e-06
3.92484e-06
3.08766e-06
1.31268e-05
7.72627e-06
1.65404e-05
1.19037e-05
7.29666e-06
3.81683e-06
1.11001e-05
3.81317e-06
1.39137e-05
6.37414e-06
8.00975e-06
7.6712e-06
1.18847e-05
1.6399e-05
2.78633e-06
8.93599e-06
2.58087e-06
7.57362e-06
4.23241e-06
1.31286e-05
3.80168e-06
2.7746e-06
7.16776e-06
1.21307e-05
5.11765e-06
8.19728e-06
4.58094e-06
2.79503e-06
3.26126e-06
4.12443e-06
2.11915e-06
3.35177e-06
3.61669e-06
1.56838e-05
7.33679e-06
8.24695e-06
5.00369e-06
2.82625e-06
7.20276e-06
3.26815e-06
4.18751e-06
2.02785e-06
2.42152e-06
3.11835e-06
5.97459e-06
5.87101e-06
4.09374e-06
5.45463e-06
2.28825e-06
4.49759e-06
4.38192e-06
4.50892e-06
4.39234e-06
4.27273e-06
5.32031e-06
1.53201e-06
2.38869e-06
2.02885e-06
4.38798e-06
3.17972e-06
3.14298e-06
4.61567e-06
5.87645e-06
8.18088e-06
2.48341e-06
1.53815e-05
3.49683e-06
7.35227e-06
2.01314e-06
2.0408e-06
7.98183e-06
4.41293e-06
7.1389e-06
1.20123e-06
5.03343e-06
1.61257e-06
4.12601e-06
8.73748e-06
4.37849e-06
7.97173e-06
2.13557e-06
3.38137e-06
9.48623e-06
7.40262e-06
1.80226e-06
2.10222e-06
7.98889e-06
1.87983e-06
7.44814e-06
4.19782e-06
2.37156e-06
4.31705e-06
6.06441e-06
4.30905e-06
2.16843e-06
1.8986e-06
1.81294e-06
3.89762e-06
2.44299e-06
1.65628e-06
8.01374e-06
1.64513e-06
2.3931e-06
3.01363e-06
2.99431e-06
1.36541e-06
1.87293e-06
2.09622e-06
1.94762e-06
1.87618e-06
6.37913e-06
4.58628e-06
2.02767e-06
1.61999e-06
2.41284e-06
3.8865e-06
4.44973e-06
2.29839e-06
1.17349e-05
3.11811e-06
1.354e-06
3.45063e-06
1.81846e-06
2.9382e-06
1.37381e-06
2.41464e-06
2.10451e-06
2.63927e-06
2.14166e-06
1.7943e-06
3.19976e-06
1.36989e-06
2.43489e-06
2.08158e-06
1.3601e-06
2.17203e-06
1.89924e-06
3.16996e-06
2.6119e-06
2.37677e-06
1.60225e-06
1.90684e-06
5.49206e-06
1.87878e-06
3.14313e-06
2.97301e-06
1.18454e-06
1.89263e-06
2.04166e-06
2.73572e-06
2.42405e-06
3.23083e-06
3.19752e-06
3.2142e-06
1.94492e-06
1.61196e-06
1.86876e-06
3.22435e-06
2.1114e-06
2.96917e-06
6.15288e-06
2.3097e-06
2.39729e-06
2.38029e-06
2.64508e-06
1.66557e-06
1.82377e-06
2.06583e-06
5.73271e-06
2.08467e-06
2.18324e-06
2.43522e-06
3.1188e-06
3.17316e-06
2.05447e-06
1.9592e-06
3.05718e-06
6.44327e-06
2.08796e-06
2.72615e-06
2.15709e-06
1.86812e-06
2.0028e-06
2.10999e-06
2.88994e-06
2.3222e-06
2.3979e-06
1.97629e-06
6.4127e-06
2.16225e-06
3.29198e-06
2.10223e-06
2.66566e-06
1.94415e-06
2.91865e-06
2.58116e-06
2.11703e-06
2.09534e-06
1.91719e-06
7.06046e-06
2.25203e-06
2.06378e-06
6.28159e-06
2.12147e-06
2.90924e-06
2.12921e-06
6.4487e-06
1.41701e-06
2.0682e-06
6.58062e-06
2.52584e-06
2.39732e-06
7.42191e-07
2.22368e-06
7.06751e-07
7.00657e-07
8.93749e-07
2.53536e-06
2.26535e-06
1.33607e-06
7.84725e-07
2.32303e-06
6.06694e-07
6.68276e-07
6.84307e-07
2.51242e-06
2.31629e-06
7.8367e-07
6.80839e-07
6.22692e-06
6.7471e-07
6.65305e-07
7.01158e-07
1.8232e-06
1.90695e-06
6.86722e-07
7.04792e-07
1.86445e-06
2.28572e-06
6.8045e-07
7.16005e-07
1.82373e-06
6.01079e-07
2.02791e-06
7.4579e-07
5.74423e-07
1.80052e-06
1.454e-06
2.2702e-06
1.80636e-06
2.15356e-06
1.79089e-06
1.79456e-06
6.8231e-07
2.24737e-06
1.45239e-06
1.79556e-06
6.97875e-07
6.24265e-07
6.62717e-07
1.44627e-06
1.40138e-06
2.15258e-06
1.82851e-06
1.3994e-06
1.43932e-06
2.19226e-06
6.97732e-07
1.77726e-06
1.79162e-06
6.54258e-07
7.3397e-07
2.34895e-06
7.10392e-07
6.56982e-07
6.26314e-07
2.18926e-06
6.12493e-07
6.03901e-07
5.92831e-07
5.12031e-07
5.11667e-07
4.9467e-07
4.97016e-07
4.96269e-07
5.33079e-07
4.94191e-07
4.97855e-07
4.86862e-07
4.90626e-07
4.94649e-07
4.94954e-07
4.91922e-07
4.89615e-07
4.96354e-07
4.95189e-07
4.82188e-07
1.10854e-06
5.3299e-07
5.44763e-07
5.36655e-07
5.15417e-07
5.01772e-07
5.53774e-07
5.53774e-07
5.53774e-07
5.53774e-07
5.53774e-07
5.53774e-07
5.50785e-07
5.50785e-07
7.45291e-07
7.11668e-07
4.9897e-07

NodalForce_(N) 3 343 double
5.48956e-05 -2.90021e-05 -7.40199e-05
-0.000213761 0.000308602 0.000233767
0.0046887 0.00129451 -0.000201568
0.000187227 0.000287739 -0.000343768
-0.00134524 -5.27266e-05 0.000458409
-0.00168637 -0.000102247 0.000372314
-0.00337087 9.49134e-05 0.000118779
-0.00180178 -0.000149081 0.000223999
-0.00194104 0.000349804 -0.000169222
-0.000908279 -0.000112286 0.000177717
-0.000372875 2.53389e-05 0.000199683
-0.00173845 0.000192537 0.000366026
-0.000631651 -0.000157008 0.000281644
-0.000815958 -0.000375941 0.000247074
-0.000270667 7.75987e-05 0.000196902
-0.00206027 5.69995e-05 -0.000302886
-0.00163764 -0.000116682 -8.10113e-06
-0.000446319 -0.000271647 -0.000400414
0.002769 0.000805235 -0.00499316
-0.000265244 2.2353e-05 -0.000130135
-0.00164434 2.09831e-05 0.000182367
-0.00376569 0.000810316 -0.000242136
0.00460483 -0.00171239 0.00211056
-0.000405307 -3.99701e-05 5.03333e-05
-0.00154462 -0.000232174 0.00017168
-0.000710643 -0.000248078 0.000177531
-5.42322e-05 5.30297e-05 -0.000373841
-0.00047325 -7.1944e-05 -0.000167471
-0.000132089 2.30025e-05 8.14065e-05
-1.53734e-05 0.000146409 8.11677e-06
-0.000944915 -0.000163046 -1.08943e-05
-0.00486551 -0.000307316 -0.00133251
-0.00356619 0.000836657 -0.00126989
-0.00250557 -4.07008e-05 -0.000475845
-0.00143198 -0.00033507 0.000203684
-0.00337222 -0.000298952 -0.000320295
-0.00111451 -0.000252008 0.000136211
-0.00436574 -0.000593585 0.000441727
-0.000502587 -0.000118547 0.000304875
-0.000967616 -0.000113164 0.000454427
-0.000509937 -0.000295081 0.000192142
-0.00187619 -3.63945e-05 0.000435947
-0.000312285 -0.000641765 0.000479779
-0.000131602 -7.72419e-05 0.000101196
-0.000655371 -0.000208244 0.000258164
0.00220647 -0.000922433 0.000733232
-0.000157255 0.000193527 0.000195615
0.00110983 0.000844986 -0.00326762
-0.000362632 -0.000247475 0.000643636
2.08679e-06 -0.000154087 0.000106858
-0.000585186 2.50572e-05 -0.000198779
-0.00138633 0.000133287 -0.000131731
0.000114743 6.28539e-05 0.000249263
-0.000294917 2.5904e-05 0.000208028
-0.000140087 0.000128055 1.22644e-05
-0.00155226 0.000226796 -0.000734249
0.00648591 0.00036102 0.000224081
5.59385e-05 7.99409e-05 1.30645e-05
0.00627215 -0.00142232 0.00364804
-0.000791818 -0.000117517 -0.000317988
-4.69264e-05 -5.63811e-05 0.0001448
-0.00118463 0.000303933 9.36385e-05
-0.00451712 0.00122195 0.000955774
-0.00264591 0.000231242 0.000214996
-0.000141425 -0.000201838 8.60172e-05
0.000189646 1.90193e-05 -5.47209e-05
-0.000187066 -0.000136731 -6.19129e-06
-0.00150768 5.09233e-05 2.31271e-05
-0.00125304 -0.000119209 5.84018e-05
-0.0012534 0.000337136 2.81675e-05
-6.54805e-05 -3.01339e-05 -5.53182e-06
-0.000218339 7.87668e-06 9.30351e-05
4.39847e-05 2.12779e-05 -0.000171445
-0.000836369 -0.000172858 0.000285077
-0.000334928 -7.76467e-05 0.000156315
0.00761691 -0.000759541 -0.00102185
-0.000770404 -8.68916e-05 9.12278e-05
3.2136e-05 5.1381e-05 -0.000112544
-0.000674024 1.29895e-05 -3.1327e-05
-0.000973613 1.63597e-05 -4.6914e-06
-0.000721876 1.56232e-06 0.000241104
-0.000527796 0.000112724 0.000222435
-0.00165731 -0.000416543 -0.000253945
-0.000333849 4.79131e-05 6.35889e-05
0.00437543 -0.00112534 0.000296658
4.75997e-05 2.33178e-05 9.74966e-06
0.00330675 -0.00228776 0.0017107
-0.00663622 0.00027177 0.000411203
0.00411675 5.06028e-05 0.00111366
-1.69021e-05 -1.48936e-05 3.9712e-06
8.35596e-05 -0.000172125 0.000127804
-0.00099177 -0.00014953 0.000180796
-0.000359446 -0.000228033 0.000454036
-0.000458785 0.00010897 -3.19387e-05
-0.00415184 0.00165246 -0.00120294
-0.000791653 0.000248676 0.000143033
-0.00159171 0.000203385 0.000104848
-0.000716871 0.000147215 0.000138162
0.00587364 0.00230051 0.000542022
-0.00183576 -9.26859e-05 8.49512e-05
-0.000657063 3.16735e-05 3.29698e-05
-0.00136792 -0.000159861 0.000120645
-2.86938e-05 -2.28423e-05 1.36737e-05
-0.00151979 -0.000398349 -0.000148368
-3.52353e-05 2.26331e-05 -5.34432e-05
-0.000680589 0.000142673 1.50346e-05
-0.00204715 -0.000177459 -0.000126099
-0.00123624 0.000513249 -0.00020838
-0.00154001 0.000196177 8.93518e-05
-0.000101651 -1.12903e-05 2.03975e-05
-0.000799785 -1.5261e-05 5.30423e-05
-0.00139992 -0.000204867 -0.000217011
-0.00158471 -0.000120276 -8.16179e-05
0.00108246 -0.000252779 0.000316421
-0.000634926 0.000239061 0.000122905
-0.000235808 -0.000158374 -7.45858e-05
-0.000654168 -0.000152538 0.000158137
-0.00260035 6.26553e-05 9.42843e-05
-0.000604721 -0.000139754 -6.83352e-05
-0.000416311 0.000186648 7.20505e-06
-0.00151036 0.000543239 -0.000303314
-0.00210556 0.000373671 -0.00032223
-0.000130893 -9.36484e-05 -0.000300851
0.00301156 -0.00033266 -0.00110112
-7.65953e-05 -4.7074e-05 -2.36798e-05
-0.000705105 -8.09244e-05 -0.000119941
-0.000570093 -5.312e-05 -4.51177e-05
0.0054272 -0.00340987 -0.00248276
-1.76494e-05 -7.08784e-05 2.36949e-05
-0.000700707 -0.000168887 3.69844e-06
-0.000426738 -0.000102125 -0.000154717
-0.000791876 -0.000206439 -0.000357295
-0.000528393 8.3948e-05 7.48489e-05
-0.000564808 0.000144613 -0.000149928
0.0117923 0.00167767 -0.00200128
4.87261e-05 2.96532e-06 -5.09943e-06
0.00537699 -0.000136109 -0.000241517
-0.000557674 0.000178566 3.22869e-05
-0.000692424 -6.56429e-05 0.000112351
-0.00217889 1.65985e-07 0.000298015
-0.00119983 0.000251695 -0.000571642
-0.000381003 0.000161478 -0.000129211
-0.000383574 0.000233506 -0.000137381
-0.00068922 0.000356454 -0.000356853
0.000283065 -0.000130526 0.00218975
-0.000797508 0.000104823 3.71705e-05
-0.000142121 -4.67305e-05 -4.18655e-06
-0.00370994 0.000338432 0.000745847
-0.00110778 0.000163242 0.000321084
-0.000174811 -1.26485e-05 5.18787e-05
-6.49073e-05 -1.87842e-05 -4.43349e-05
1.19461e-05 6.29609e-06 -4.00222e-06
0.00442391 -0.00455542 -0.000498006
-0.000507118 3.10001e-05 -0.00017219
-0.000574374 -0.000106888 -2.05756e-06
-0.000468652 -3.62791e-05 -0.000148313
0.00256413 -0.00064992 -0.000180855
0.012337 -0.0050698 -0.00781167
-0.000316161 6.28469e-05 -9.80033e-05
-0.00108515 0.000297587 -0.000414758
-0.000110499 -4.32438e-05 4.31043e-05
-0.000172465 -3.51366e-05 5.83345e-05
-0.000430813 0.000215136 7.27326e-05
-0.000177451 1.10869e-05 -1.8931e-05
-0.000682851 -9.47765e-05 -0.00035439
-0.000459322 -4.56927e-05 -0.00022029
-0.000614355 0.000118178 6.66085e-05
-0.000233178 -1.9464e-05 4.41798e-05
-0.000512175 -5.9946e-05 0.000104274
-0.000381181 -7.76629e-05 6.73138e-05
-0.000377559 6.40709e-06 -9.50573e-06
-0.001496 -0.000113799 0.000167664
-0.000469798 0.000166843 1.94324e-05
4.09945e-05 -4.17877e-05 6.381e-05
-0.000192502 2.93654e-06 5.93929e-05
-0.000107948 1.2594e-05 3.43594e-05
-0.000442044 -6.32327e-05 -0.00010375
-0.000131076 -9.21935e-05 9.25515e-05
-0.00106745 9.81736e-05 0.00012189
0.00550383 0.00177024 -0.00080377
-0.00101635 0.000308289 -0.000588528
-0.000696212 0.000234414 0.000278532
-0.000956439 0.000323975 0.000474522
0.00513145 -0.00240474 -8.9681e-05
-0.00010614 -1.08526e-05 4.25649e-05
-0.000307707 0.000204017 -0.000119728
-0.000773494 0.00023933 -0.000318138
-0.000561991 0.000189272 -0.000310442
-0.000654311 1.19483e-05 5.68996e-05
-0.000940302 -0.000182665 9.02997e-05
-0.000465949 -3.23866e-05 -6.09441e-05
-0.000539454 -3.28699e-05 -3.55429e-06
-1.64005e-05 -0.000127419 0.000113799
-0.000345858 -0.000103904 2.95324e-05
-3.10213e-05 -2.69157e-06 -5.17767e-05
-7.77042e-05 -3.76766e-05 -6.20404e-05
-0.000601576 0.000123034 0.000311821
-0.000615241 6.06615e-05 -4.65779e-05
-0.000825287 8.72878e-05 1.65102e-05
-0.000505775 -2.38245e-05 -4.67249e-06
-0.000668574 -0.000192669 0.000115078
0.00589423 -0.00143915 -0.000292891
0.000156078 -3.12746e-05 9.45276e-06
0.00414597 -0.000133199 0.00240902
-0.000254874 -4.51014e-05 -1.56027e-05
-0.000311703 -8.17199e-05 -0.00010593
-0.00101972 -0.000188817 8.68128e-05
-0.000496311 1.31892e-05 5.09041e-05
-0.000409094 6.27252e-05 1.7121e-05
-0.000225471 1.797e-05 7.15542e-05
6.73682e-05 -6.36488e-06 5.39416e-06
-0.000411855 0.000201605 0.000208087
-0.000732145 0.00015022 -0.000297816
-0.000701317 -8.75944e-05 -4.04606e-05
-0.00034818 7.84279e-05 5.80932e-05
-0.000109194 3.13667e-05 -8.3122e-05
-0.00049398 0.000279873 -0.000334582
-0.000393167 1.70621e-05 3.33718e-05
-0.000460275 -6.66407e-05 2.5349e-05
-0.000813697 6.92798e-05 0.000257808
-0.00045114 9.49874e-06 7.24097e-05
-0.00100433 0.000127453 -0.000244895
-0.000309791 -6.27322e-05 -9.72516e-05
-0.000697656 0.000240955 -6.68518e-05
3.22748e-05 -5.32562e-05 -4.84885e-06
0.00305317 -0.00214379 -0.00194274
-0.000204686 1.03926e-05 7.93404e-05
-0.000258692 1.95964e-06 6.81934e-05
-0.000681612 -2.95036e-05 0.000240877
-0.000221436 -1.94455e-05 -3.08662e-07
-5.78093e-05 -3.79736e-05 3.10492e-05
-0.000675706 -0.000167768 0.00026654
0.0116359 0.00886798 -0.00131594
0.00601849 -0.00423954 0.00533665
-0.000400941 -6.55792e-05 5.82105e-06
-0.00106298 -0.000203835 9.84908e-05
-0.000189906 1.55875e-05 8.57147e-06
-0.000808595 3.25978e-05 -8.422e-05
-0.000614278 -1.04953e-05 0.000356749
-0.000340112 6.61562e-05 -2.60233e-05
-0.000783585 7.94715e-05 0.000317975
0.000269396 0.000581368 -0.00101992
-0.000517004 -8.30764e-05 0.000218882
-5.17915e-05 1.60728e-05 -2.13291e-05
-0.000485926 0.00128877 -0.000874528
-0.000117033 1.20393e-06 1.6302e-05
0.0112522 0.0060341 -0.00114388
-0.000709673 -0.00014639 0.000336503
-0.000332496 -1.05958e-05 0.00020788
0.000775155 -0.000437724 0.000529018
-0.000353321 -0.00011993 3.00872e-05
0.00138438 -0.00103748 -0.000419869
-0.000179015 9.33418e-05 1.54197e-05
-0.000185139 -0.000110136 -8.34007e-05
-0.000382676 -2.34678e-06 5.77332e-05
-0.000850673 0.000214575 -8.7094e-05
-9.45635e-05 5.44978e-06 -4.72599e-06
-0.00128425 -0.00200955 -6.28674e-05
-0.000542196 -3.25492e-05 9.8003e-05
-8.35594e-05 7.4707e-06 3.99045e-05
-0.000170364 0.000129319 -7.72571e-05
-0.00130329 -0.00316637 -0.000656949
-0.00040032 -0.000157752 0.000204275
-0.000536671 -0.000204853 0.00030935
-0.000190792 0.000114315 -7.07982e-07
-0.000167663 3.59361e-05 0.000123214
-1.91545e-05 2.49572e-07 -8.05348e-05
0.00924524 0.00341292 -0.000468362
0.000853385 0.000838393 0.000915671
-0.000940096 -0.00268063 0.00210549
-0.000382437 -0.000114454 0.000214153
-0.000175729 -9.33201e-05 3.89006e-05
-0.000160372 -6.38634e-05 -7.26546e-05
-0.000178098 -3.01495e-07 -0.000153226
0.000641524 0.00257227 -0.000654231
0.00591206 0.00228317 0.00142341
-7.33648e-05 -3.73951e-05 3.21509e-05
-0.000111899 -1.34306e-05 8.12025e-06
-0.000402027 -0.000113567 -0.00020214
-3.12944e-05 -1.35278e-05 1.64968e-05
0.00807364 -0.00105759 -1.43181e-05
-0.000498351 -0.000143784 -0.000290975
-0.000106403 -2.00523e-05 2.35998e-06
-0.000557647 0.000329679 0.000299932
7.50428e-06 2.01719e-06 4.90185e-06
-0.000372538 -8.51002e-05 -0.000209063
-0.000172245 5.13512e-05 -0.000148033