# vtk DataFile Version 4.2
vtk output
ASCII
DATASET UNSTRUCTURED_GRID

POINTS 343 double
0.00112235 0.00419467 1.54934e-07
0.00217101 0.00498177 0.00217567
0 0.00419538 0.00112517
0.00192794 0.00195373 0.00194245
0.00516071 0.00240042 0.0050343
0.00516559 0.00382447 0.00639957
0.00761875 0.00476303 0.00500361
0.00622295 0.00484222 0.00369497
0.00682617 0.00327807 0.0069177
0.00498867 0.0049876 0.00500167
0.00416798 0.00111298 0.0100008
0.00526881 0.00207322 0.00790635
0.00417652 -1.28993e-05 0.0083186
0.00200871 0.00200185 0.00803362
0.00427622 0.00252844 0.010001
0.00695576 0.00643693 0.00695064
0.00641417 0.00617401 0.00518619
0.00225733 0.0021837 0.00514643
0 0.00143586 0.00417514
0.00159325 0.00346585 0.00403709
0.0068311 0.00318317 0.00316552
0.00773349 0.00219898 0.00506886
0 0.00270918 0.00154168
0.0041534 0.00142321 2.06262e-06
0.00500135 0.00218121 0.00220081
0.00396075 0.00352334 0.00160499
0.00134234 -8.93903e-07 0.00406019
0.00417413 -1.32363e-05 0.00169043
0.00262934 0.00695047 8.943e-07
0.00194003 0.00805228 0.00194523
0.00409032 0.00624525 0.001647
0.00800582 0.00797252 0.00800215
0.00795735 0.00480216 0.00802718
0.00838753 0.00606481 0.00595335
0.0100098 0.00880485 0.00419929
0.00758247 0.0076235 0.00496807
0.00858138 0.00996386 0.00417203
0.00798702 0.00795747 0.00202138
0.00353062 0.00303394 0.00696042
0.00443033 0.00365796 0.00832579
0.00388372 0.00159645 0.00597009
0.00500697 0.00766303 0.00767869
0.00198973 0.00800727 0.0079898
0.00283152 0.00999546 0.00712747
0.00392007 0.00839616 0.00595876
0 0.00695361 0.00262895
0.00164651 0.00623877 0.00408808
0 0.0040177 0.00850214
0.00231353 0.00498493 0.00766182
0.00143169 0.00417411 0.01
0.00717315 0.00710729 0.0100018
0.00611487 0.00596314 0.00842038
0.00205271 0.00794093 0.00474206
0.00304381 0.00694153 0.00646822
0.00158645 0.00607798 0.00592617
0.00998437 0.00576332 0.00832176
0 0.00718191 0.00711644
0.0015854 0.00577296 2.19936e-07
0 0.00577432 0.00158701
0.00999528 0.00713705 0.00712129
0.00286224 0.00334761 0.0100006
0.00995602 0.00138691 0.00418171
0.00802708 0.00192753 0.00198466
0.00838257 0.00348647 0.00400389
0.00371845 0.00164418 0.00412938
0.001511 0.00999953 0.00581508
0.00280059 -6.10894e-06 0.00712832
0.00610154 0.00416355 0.00837886
0.00999835 0.00722899 0.00420167
0.00851008 -3.97456e-05 0.00417337
0.00334062 0.00286718 1.31659e-06
0.00269293 0.00153684 0.0100005
0.00281079 -6.63565e-06 0.00283265
0.00479381 0.00518972 0.00755605
0.00315517 0.00314437 0.00316808
0 0.00849157 0.00581511
0.00486053 0.00366442 0.00378816
0.00153626 0.00270839 1.61437e-07
0.00580092 0.00830847 0.010001
0.00599194 0.00998105 0.00850788
0.00421876 0.00998978 0.00831878
0.00401863 0.00849442 0.0100002
0.0100058 0.00844635 0.00582023
0.00314869 0.006832 0.00315163
0 0.00748929 0.00137438
0.00137478 0.00748891 7.14136e-08
0 0.00287343 0.00335182
0 0.00580816 0.00831736
0 0.00429792 0.00253898
0.00253444 0.00429469 8.45928e-07
0.00143276 0.00581892 0.01
0.00517526 0.00646333 0.00640197
0.00360179 0.00650743 0.00823481
0.00691745 0.00260171 0.0100021
0.00798296 0.00192475 0.00803886
0.00692669 -2.91868e-05 0.00308618
0.00599059 0.00164318 0.0036159
0.00996701 0.00282603 0.00335872
0 0.00140616 0.00256446
0.00637788 0.00820789 0.00642312
0.00578945 0.00141408 3.93751e-06
0.0060187 0.00353254 0.00160692
0.00316196 0.00999397 0.00582582
0.00857454 0.00996411 0.00583703
0.00255121 0.00140084 9.309e-07
0.00593753 -2.30012e-05 0.00149845
0.00628808 0.00826803 0.00362007
0.00850353 -3.94491e-05 0.00583788
0.00617348 0.00165095 0.00636757
0.00139992 0.0025639 0.0100001
0.00712063 0.00715686 4.7001e-06
0.00517181 0.0076765 0.0021713
0.00594025 0.00607667 0.00160529
0 0.00686719 0.00578184
0.0099571 0.00135689 0.00257179
0.00177042 0.00360943 0.0064081
0.0100086 0.00844116 0.00263024
0.00840517 0.00615558 0.00413742
0.00599722 0.00997995 0.00149694
0.00692237 -2.88651e-05 0.00692917
0.00995469 0.00138681 0.00582541
0.00837014 0.00353856 0.00606507
0.00149849 -1.20728e-06 0.00581532
0 0.0013659 0.00748679
0.0013605 -1.07403e-06 0.00752895
0.00999405 0.00682225 0.00578709
0.00582691 0.00847353 3.44191e-06
0 0.0075208 0.00859127
0.00136458 0.0074862 0.00999999
0.00423594 0.00819639 0.00362937
0.00860604 0.00996383 0.00751556
0.0100055 0.00858524 0.00753086
0.00573935 0.00156698 0.0100014
0.0072348 0.0041623 0.0100022
0 0.0057735 0.00666667
0.00137144 0.00999945 0.00752904
0 0.00863025 0.00752641
0.00853804 -4.04892e-05 0.00251358
0.00999734 0.00690822 0.0026356
0.00845517 0.00630779 0.00216826
0.0084939 0.00579001 0.0100028
0.00744655 0.00134319 0.0100023
0.00853486 -3.99533e-05 0.00751561
0.00995279 0.00131726 0.0074917
0 0.00143551 0.00581971
0.00593318 -2.24219e-05 0.00850754
0.00418214 -1.34315e-05 0.0034016
0.00791957 0.0046765 0.00203953
0.00997796 0.00425157 0.00254591
0.00423804 0.00998933 0.00666723
0.00284245 0.00999547 0.00283243
0.00130443 -9.73644e-07 0.00241849
0 0.00727418 0.00419576
0.00998526 0.00572852 0.00667162
0.00699146 0.00997405 0.00308489
0.00751116 0.00860913 0.0100021
0 0.00574334 0.00336387
0 0.0043297 0.00416652
0.00685645 0.00576185 0.010002
0.00996508 0.00297543 0.00692034
0.004193 -1.32076e-05 0.00666768
0.0024833 0.00999615 0.00861181
0.00745095 0.0013338 5.62775e-06
0.00576756 0.00665089 0.0100011
0.00999667 0.00747611 0.00859535
0.00860491 0.0075191 0.0100028
0.00689142 0.00299618 5.13485e-06
0.00336163 0.00573868 1.58216e-06
0.00753991 0.00860162 4.99094e-06
0.00753564 0.00997006 0.00139177
0.00578423 0.00685055 3.51021e-06
0.00697168 0.00634733 0.00303704
0.00746836 -3.34722e-05 0.00139325
0.00287703 0.0049958 0.0100005
0.0043211 0.00582541 0.0100007
0.00431438 0.00415796 0.0100009
0.00752988 0.00997095 0.00861851
0.00245683 -5.2716e-06 0.00861201
0.00998772 0.00569785 0.00337037
0 0.00302218 0.00691532
0.009971 0.00397208 0.00850659
0.00848227 0.00398147 6.53975e-06
0.00996737 0.00266117 0.00154921
0 0.00244495 0.00857025
0.00244613 0.0085667 0.01
0.00746307 -3.28603e-05 0.00861812
0.00844921 0.00258775 0.0100028
0.00882365 0.00415666 0.0100031
0.00568414 0.00998216 0.00583474
0.0051883 0.00757023 0.00503382
0.00565769 0.00998206 0.00421701
0.00698695 0.00997459 0.00692867
0.00301897 0.00691218 0.0100002
0.00415809 0.00432125 2.48044e-06
0.00281358 -6.93978e-06 0.00440545
0.00312817 -7.78294e-06 0.00582634
0.00997844 0.00414859 0.00113272
0.00364344 0.00833017 0.00158977
0.00997685 0.00428363 0.00417288
0.00666152 0.00575142 4.64407e-06
0.00860965 0.00996327 0.00251198
0 0.00848692 0.00262374
0.0013535 0.00999945 0.00405992
0 0.00885053 0.00419359
0.00420393 0.00884 2.20387e-06
0.00421869 0.00998895 0.00168938
0.00498927 0.00477962 0.00238124
0.00720519 0.00449502 5.30427e-06
0.00560209 -2.11492e-05 0.00421822
0.0056286 -2.10882e-05 0.00583535
0.00131535 0.00999946 0.00241807
0.00853907 0.00240686 6.71603e-06
0.0099757 0.00447624 0.0072244
0.00713215 0.00997348 0.00500295
0.00571893 0.00334696 0.0100015
0.00243977 -5.2715e-06 0.00135745
0.00995956 0.00239749 0.00857485
0.00239057 0.00478883 0.00500036
0.00582013 0.00431242 4.14646e-06
0.00831071 0.0057744 6.09313e-06
0.00549209 0.00998351 0.00722185
0.00997538 0.00428432 0.00583886
0.0054188 0.00998318 0.00277753
0.00706664 -2.98008e-05 0.00500401
0.00284423 0.0099955 0.00440475
0 0.00452174 0.00721958
0.00451861 0.00721062 0.0100006
0.00543761 -1.97085e-05 0.00722165
0.00359699 0.00506821 0.00359741
0.00426404 0.00998917 0.00500901
0.00421773 -1.34773e-05 0.0050099
0.00366415 0.00521121 0.00617534
0 0.005744 0.00499998
0 0.00433013 0.00583333
0.0049964 0.0057325 3.268e-06
0.00498213 0.00632763 0.00355565
0.00536413 -1.99047e-05 0.00277901
0.00998637 0.00569882 0.00500572
0.00368809 0.00640218 0.00484462
0.00572887 0.00498485 0.0100014
0.00998951 0.00572849 0.0015942
0 0.00666667 0
0.00859667 0.00748535 6.01492e-06
0.00330995 -1.03917e-05 2.58377e-06
0 0.01 0.00666667
0.00501042 0.00998541 0.0100012
0 0.00288419 0.00499914
0.0100024 0.00744374 0.00138151
0.00999755 0.00662087 7.53312e-06
0 0.005 0.01
0.00498034 0.00286979 3.07879e-06
0 0.005 0
0.00994632 -5.04888e-05 0.00334054
0.0100162 0.0099536 0.00667122
0.00419917 0.00726555 2.29366e-06
0.00996553 0.00283718 0.00500522
0.00496669 -1.87325e-05 3.93783e-06
0 0 0.00666667
0.00378622 0.00360994 0.00522718
0.00496146 -1.78839e-05 0.0100005
0.00994363 -5.0029e-05 0.00667191
0 0 0.005
0.00880197 0.00996166 0.00122567
0.010012 0.00873366 0.00122704
0.00994492 -5.0148e-05 0.00500625
0.00998532 0.00495348 7.81971e-06
0.00121428 0.00121872 4.22606e-08
0 0.00122008 0.00122008
0 0.00333333 0.01
0 0.00666667 0.01
0.00879426 0.00874236 5.94646e-06
0.0100191 0.00995311 0.00333916
0.00422813 0.00998907 0.00340056
0.00998925 0.00662218 0.0100041
0 0.00333333 0
0 0.00122008 0.00877992
0.00121189 -1.39436e-06 0.00877966
0.00121371 0.00121918 0.0100002
0.00879547 0.00996237 0.00878337
0.00121992 0.00877913 0.00999994
0 0.00877992 0.00877992
0.0100058 0.0087347 0.00878405
0.00668826 0.00997534 3.65738e-06
0.00995677 0.00117025 0.00122799
0.00122182 0.00999914 0.00878042
0.00878608 0.00874329 0.010003
0.00997698 0.00495486 0.0100041
0 0 0.00333333
0.00662466 -2.8262e-05 5.63866e-06
0.00872997 -4.2304e-05 0.00122734
0.00120371 -1.34712e-06 0.00121254
0 0.00877992 0.00122008
0.00122157 0.00877919 2.28536e-07
0.00121424 0.0099992 0.00121145
0.00995057 0.00117115 0.0087842
0.00873154 0.00117972 0.0100029
0.00661822 -2.73797e-05 0.0100011
0.00873957 0.00117876 7.0986e-06
0.00872398 -4.15273e-05 0.00878282
0.00997329 0.00328572 8.02455e-06
0.0033407 0.00999226 0.0100009
0.00246744 0.00999637 0.00135687
0.00668063 0.00997622 0.0100022
0.00996483 0.00328723 0.0100041
0 0.01 0.005
0.00262895 0.00848325 9.8389e-07
0.0100176 0.00995336 0.00500526
0 0.01 0.00333333
0 0.00166667 0
0.00994771 -5.09316e-05 0.00167472
0 0.00166667 0.01
0 0.00833333 0
0.0100098 0.00828714 7.15308e-06
0.00994231 -5.02219e-05 0.00833755
0.0100206 0.00995278 0.00167329
0.0100149 0.00995364 0.00833768
0.00167033 0.00999749 0.0100003
0 0.01 0.00833333
0.00835647 0.00996444 5.33492e-06
0.00828574 -3.96964e-05 7.01968e-06
0.00827808 -3.88639e-05 0.0100023
0.00834799 0.00996508 0.010003
0 0 0.00833333
0.0100016 0.0082883 0.010004
0.00165434 -3.50621e-06 7.10049e-07
0 0 0.00166667
0.00334665 0.00999272 1.35945e-06
0.00995279 0.00161799 0.010004
0.00996107 0.00161705 8.17493e-06
0.00165382 -2.9478e-06 0.0100004
0.0016725 0.00999805 4.31347e-07
0 0.01 0.00166667
0.0100137 0.00995355 0.0100042
0 0 0.01
0.010022 0.0099526 6.73899e-06
0.00994085 -5.0347e-05 0.0100035
0 0.01 0.01
0.009949 -5.13745e-05 8.57917e-06
0 0.01 0
0 0 0
0.00501797 0.00998462 2.43969e-06
0.00330652 -9.25902e-06 0.0100001
0 0.00833333 0.01

CELLS 343 686
1 0
1 1
1 2
1 3
1 4
1 5
1 6
1 7
1 8
1 9
1 10
1 11
1 12
1 13
1 14
1 15
1 16
1 17
1 18
1 19
1 20
1 21
1 22
1 23
1 24
1 25
1 26
1 27
1 28
1 29
1 30
1 31
1 32
1 33
1 34
1 35
1 36
1 37
1 38
1 39
1 40
1 41
1 42
1 43
1 44
1 45
1 46
1 47
1 48
1 49
1 50
1 51
1 52
1 53
1 54
1 55
1 56
1 57
1 58
1 59
1 60
1 61
1 62
1 63
1 64
1 65
1 66
1 67
1 68
1 69
1 70
1 71
1 72
1 73
1 74
1 75
1 76
1 77
1 78
1 79
1 80
1 81
1 82
1 83
1 84
1 85
1 86
1 87
1 88
1 89
1 90
1 91
1 92
1 93
1 94
1 95
1 96
1 97
1 98
1 99
1 100
1 101
1 102
1 103
1 104
1 105
1 106
1 107
1 108
1 109
1 110
1 111
1 112
1 113
1 114
1 115
1 116
1 117
1 118
1 119
1 120
1 121
1 122
1 123
1 124
1 125
1 126
1 127
1 128
1 129
1 130
1 131
1 132
1 133
1 134
1 135
1 136
1 137
1 138
1 139
1 140
1 141
1 142
1 143
1 144
1 145
1 146
1 147
1 148
1 149
1 150
1 151
1 152
1 153
1 154
1 155
1 156
1 157
1 158
1 159
1 160
1 161
1 162
1 163
1 164
1 165
1 166
1 167
1 168
1 169
1 170
1 171
1 172
1 173
1 174
1 175
1 176
1 177
1 178
1 179
1 180
1 181
1 182
1 183
1 184
1 185
1 186
1 187
1 188
1 189
1 190
1 191
1 192
1 193
1 194
1 195
1 196
1 197
1 198
1 199
1 200
1 201
1 202
1 203
1 204
1 205
1 206
1 207
1 208
1 209
1 210
1 211
1 212
1 213
1 214
1 215
1 216
1 217
1 218
1 219
1 220
1 221
1 222
1 223
1 224
1 225
1 226
1 227
1 228
1 229
1 230
1 231
1 232
1 233
1 234
1 235
1 236
1 237
1 238
1 239
1 240
1 241
1 242
1 243
1 244
1 245
1 246
1 247
1 248
1 249
1 250
1 251
1 252
1 253
1 254
1 255
1 256
1 257
1 258
1 259
1 260
1 261
1 262
1 263
1 264
1 265
1 266
1 267
1 268
1 269
1 270
1 271
1 272
1 273
1 274
1 275
1 276
1 277
1 278
1 279
1 280
1 281
1 282
1 283
1 284
1 285
1 286
1 287
1 288
1 289
1 290
1 291
1 292
1 293
1 294
1 295
1 296
1 297
1 298
1 299
1 300
1 301
1 302
1 303
1 304
1 305
1 306
1 307
1 308
1 309
1 310
1 311
1 312
1 313
1 314
1 315
1 316
1 317
1 318
1 319
1 320
1 321
1 322
1 323
1 324
1 325
1 326
1 327
1 328
1 329
1 330
1 331
1 332
1 333
1 334
1 335
1 336
1 337
1 338
1 339
1 340
1 341
1 342

CELL_TYPES 343
1
1
1
1
1
1
1
1
1
1
1
1
1
1
1
1
1
1
1
1
1
1
1
1
1
1
1
1
1
1
1
1
1
1
1
1
1
1
1
1
1
1
1
1
1
1
1
1
1
1
1
1
1
1
1
1
1
1
1
1
1
1
1
1
1
1
1
1
1
1
1
1
1
1
1
1
1
1
1
1
1
1
1
1
1
1
1
1
1
1
1
1
1
1
1
1
1
1
1
1
1
1
1
1
1
1
1
1
1
1
1
1
1
1
1
1
1
1
1
1
1
1
1
1
1
1
1
1
1
1
1
1
1
1
1
1
1
1
1
1
1
1
1
1
1
1
1
1
1
1
1
1
1
1
1
1
1
1
1
1
1
1
1
1
1
1
1
1
1
1
1
1
1
1
1
1
1
1
1
1
1
1
1
1
1
1
1
1
1
1
1
1
1
1
1
1
1
1
1
1
1
1
1
1
1
1
1
1
1
1
1
1
1
1
1
1
1
1
1
1
1
1
1
1
1
1
1
1
1
1
1
1
1
1
1
1
1
1
1
1
1
1
1
1
1
1
1
1
1
1
1
1
1
1
1
1
1
1
1
1
1
1
1
1
1
1
1
1
1
1
1
1
1
1
1
1
1
1
1
1
1
1
1
1
1
1
1
1
1
1
1
1
1
1
1
1
1
1
1
1
1
1
1
1
1
1
1
1
1
1
1
1
1
1
1
1
1
1
1
1
1
1
1
1
1
1
1
1
1
1
1
1
1
1
1
1
1
1
1
1
1
1
1

POINT_DATA 343
FIELD FieldData 8

NodeID_(#) 1 343 int
0
1
2
3
4
5
6
7
8
9
10
11
12
13
14
15
16
17
18
19
20
21
22
23
24
25
26
27
28
29
30
31
32
33
34
35
36
37
38
39
40
41
42
43
44
45
46
47
48
49
50
51
52
53
54
55
56
57
58
59
60
61
62
63
64
65
66
67
68
69
70
71
72
73
74
75
76
77
78
79
80
81
82
83
84
85
86
87
88
89
90
91
92
93
94
95
96
97
98
99
100
101
102
103
104
105
106
107
108
109
110
111
112
113
114
115
116
117
118
119
120
121
122
123
124
125
126
127
128
129
130
131
132
133
134
135
136
137
138
139
140
141
142
143
144
145
146
147
148
149
150
151
152
153
154
155
156
157
158
159
160
161
162
163
164
165
166
167
168
169
170
171
172
173
174
175
176
177
178
179
180
181
182
183
184
185
186
187
188
189
190
191
192
193
194
195
196
197
198
199
200
201
202
203
204
205
206
207
208
209
210
211
212
213
214
215
216
217
218
219
220
221
222
223
224
225
226
227
228
229
230
231
232
233
234
235
236
237
238
239
240
241
242
243
244
245
246
247
248
249
250
251
252
253
254
255
256
257
258
259
260
261
262
263
264
265
266
267
268
269
270
271
272
273
274
275
276
277
278
279
280
281
282
283
284
285
286
287
288
289
290
291
292
293
294
295
296
297
298
299
300
301
302
303
304
305
306
307
308
309
310
311
312
313
314
315
316
317
318
319
320
321
322
323
324
325
326
327
328
329
330
331
332
333
334
335
336
337
338
339
340
341
342

Component_(#) 1 343 int
0
0
0
0
0
0
0
0
0
0
0
0
0
0
0
0
0
0
0
0
0
0
0
0
0
0
0
0
0
0
0
0
0
0
0
0
0
0
0
0
0
0
0
0
0
0
0
0
0
0
0
0
0
0
0
0
0
0
0
0
0
0
0
0
0
0
0
0
0
0
0
0
0
0
0
0
0
0
0
0
0
0
0
0
0
0
0
0
0
0
0
0
0
0
0
0
0
0
0
0
0
0
0
0
0
0
0
0
0
0
0
0
0
0
0
0
0
0
0
0
0
0
0
0
0
0
0
0
0
0
0
0
0
0
0
0
0
0
0
0
0
0
0
0
0
0
0
0
0
0
0
0
0
0
0
0
0
0
0
0
0
0
0
0
0
0
0
0
0
0
0
0
0
0
0
0
0
0
0
0
0
0
0
0
0
0
0
0
0
0
0
0
0
0
0
0
0
0
0
0
0
0
0
0
0
0
0
0
0
0
0
0
0
0
0
0
0
0
0
0
0
0
0
0
0
0
0
0
0
0
0
0
0
0
0
0
0
0
0
0
0
0
0
0
0
0
0
0
0
0
0
0
0
0
0
0
0
0
0
0
0
0
0
0
0
0
0
0
0
0
0
0
0
0
0
0
0
0
0
0
0
0
0
0
0
0
0
0
0
0
0
0
0
0
0
0
0
0
0
0
0
0
0
0
0
0
0
0
0
0
0
0
0
0
0
0
0
0
0
0
0
0
0
0
0
0
0
0
0
0
0
0
0
0
0
0
0
0
0
0
0
0
0

NodalMass_(kg) 1 343 double
3.15563e-06
1.41304e-05
2.20912e-06
1.71484e-05
8.42e-06
9.09306e-06
9.93033e-06
7.52198e-06
6.81096e-06
5.58223e-06
3.10888e-06
1.07575e-05
4.87011e-06
1.64955e-05
3.0246e-06
8.05984e-06
6.703e-06
1.0877e-05
4.18978e-06
8.16106e-06
6.14143e-06
1.17902e-05
2.23114e-06
4.25176e-06
1.09915e-05
7.41467e-06
4.21871e-06
3.92484e-06
3.08766e-06
1.31268e-05
7.72627e-06
1.65404e-05
1.19037e-05
7.29666e-06
3.81683e-06
1.11001e-05
3.81317e-06
1.39137e-05
6.37414e-06
8.00975e-06
7.6712e-06
1.18847e-05
1.6399e-05
2.78633e-06
8.93599e-06
2.58087e-06
7.57362e-06
4.23241e-06
1.31286e-05
3.80168e-06
2.7746e-06
7.16776e-06
1.21307e-05
5.11765e-06
8.19728e-06
4.58094e-06
2.79503e-06
3.26126e-06
4.12443e-06
2.11915e-06
3.35177e-06
3.61669e-06
1.56838e-05
7.33679e-06
8.24695e-06
5.00369e-06
2.82625e-06
7.20276e-06
3.26815e-06
4.18751e-06
2.02785e-06
2.42152e-06
3.11835e-06
5.97459e-06
5.87101e-06
4.09374e-06
5.45463e-06
2.28825e-06
4.49759e-06
4.38192e-06
4.50892e-06
4.39234e-06
4.27273e-06
5.32031e-06
1.53201e-06
2.38869e-06
2.02885e-06
4.38798e-06
3.17972e-06
3.14298e-06
4.61567e-06
5.87645e-06
8.18088e-06
2.48341e-06
1.53815e-05
3.49683e-06
7.35227e-06
2.01314e-06
2.0408e-06
7.98183e-06
4.41293e-06
7.1389e-06
1.20123e-06
5.03343e-06
1.61257e-06
4.12601e-06
8.73748e-06
4.37849e-06
7.97173e-06
2.13557e-06
3.38137e-06
9.48623e-06
7.40262e-06
1.80226e-06
2.10222e-06
7.98889e-06
1.87983e-06
7.44814e-06
4.19782e-06
2.37156e-06
4.31705e-06
6.06441e-06
4.30905e-06
2.16843e-06
1.8986e-06
1.81294e-06
3.89762e-06
2.44299e-06
1.65628e-06
8.01374e-06
1.64513e-06
2.3931e-06
3.01363e-06
2.99431e-06
1.36541e-06
1.87293e-06
2.09622e-06
1.94762e-06
1.87618e-06
6.37913e-06
4.58628e-06
2.02767e-06
1.61999e-06
2.41284e-06
3.8865e-06
4.44973e-06
2.29839e-06
1.17349e-05
3.11811e-06
1.354e-06
3.45063e-06
1.81846e-06
2.9382e-06
1.37381e-06
2.41464e-06
2.10451e-06
2.63927e-06
2.14166e-06
1.7943e-06
3.19976e-06
1.36989e-06
2.43489e-06
2.08158e-06
1.3601e-06
2.17203e-06
1.89924e-06
3.16996e-06
2.6119e-06
2.37677e-06
1.60225e-06
1.90684e-06
5.49206e-06
1.87878e-06
3.14313e-06
2.97301e-06
1.18454e-06
1.89263e-06
2.04166e-06
2.73572e-06
2.42405e-06
3.23083e-06
3.19752e-06
3.2142e-06
1.94492e-06
1.61196e-06
1.86876e-06
3.22435e-06
2.1114e-06
2.96917e-06
6.15288e-06
2.3097e-06
2.39729e-06
2.38029e-06
2.64508e-06
1.66557e-06
1.82377e-06
2.06583e-06
5.73271e-06
2.08467e-06
2.18324e-06
2.43522e-06
3.1188e-06
3.17316e-06
2.05447e-06
1.9592e-06
3.05718e-06
6.44327e-06
2.08796e-06
2.72615e-06
2.15709e-06
1.86812e-06
2.0028e-06
2.10999e-06
2.88994e-06
2.3222e-06
2.3979e-06
1.97629e-06
6.4127e-06
2.16225e-06
3.29198e-06
2.10223e-06
2.66566e-06
1.94415e-06
2.91865e-06
2.58116e-06
2.11703e-06
2.09534e-06
1.91719e-06
7.06046e-06
2.25203e-06
2.06378e-06
6.28159e-06
2.12147e-06
2.90924e-06
2.12921e-06
6.4487e-06
1.41701e-06
2.0682e-06
6.58062e-06
2.52584e-06
2.39732e-06
7.42191e-07
2.22368e-06
7.06751e-07
7.00657e-07
8.93749e-07
2.53536e-06
2.26535e-06
1.33607e-06
7.84725e-07
2.32303e-06
6.06694e-07
6.68276e-07
6.84307e-07
2.51242e-06
2.31629e-06
7.8367e-07
6.80839e-07
6.22692e-06
6.7471e-07
6.65305e-07
7.01158e-07
1.8232e-06
1.90695e-06
6.86722e-07
7.04792e-07
1.86445e-06
2.28572e-06
6.8045e-07
7.16005e-07
1.82373e-06
6.01079e-07
2.02791e-06
7.4579e-07
5.74423e-07
1.80052e-06
1.454e-06
2.2702e-06
1.80636e-06
2.15356e-06
1.79089e-06
1.79456e-06
6.8231e-07
2.24737e-06
1.45239e-06
1.79556e-06
6.97875e-07
6.24265e-07
6.62717e-07
1.44627e-06
1.40138e-06
2.15258e-06
1.82851e-06
1.3994e-06
1.43932e-06
2.19226e-06
6.97732e-07
1.77726e-06
1.79162e-06
6.54258e-07
7.3397e-07
2.34895e-06
7.10392e-07
6.56982e-07
6.26314e-07
2.18926e-06
6.12493e-07
6.03901e-07
5.92831e-07
5.12031e-07
5.11667e-07
4.9467e-07
4.97016e-07
4.96269e-07
5.33079e-07
4.94191e-07
4.97855e-07
4.86862e-07
4.90626e-07
4.94649e-07
4.94954e-07
4.91922e-07
4.89615e-07
4.96354e-07
4.95189e-07
4.82188e-07
1.10854e-06
5.3299e-07
5.44763e-07
5.36655e-07
5.15417e-07
5.01772e-07
5.53774e-07
5.53774e-07
5.53774e-07
5.53774e-07
5.53774e-07
5.53774e-07
5.50785e-07
5.50785e-07
7.45291e-07
7.11668e-07
4.9897e-07

NodalForce_(N) 3 343 double
-4.58772e-07 2.54805e-07 -4.62195e-08
-5.34477e-06 3.62496e-06 -1.33489e-06
0.000852311 0.000751087 0.000655587
7.27909e-06 4.33414e-06 -1.46468e-06
2.02587e-05 2.02806e-05 -5.85865e-06
1.38351e-05 1.85422e-05 -6.38128e-06
2.76227e-06 4.55525e-05 -1.59315e-05
-2.71916e-06 2.26592e-05 -7.94858e-06
1.79195e-05 2.66674e-05 -8.97758e-06
5.6607e-09 9.97642e-06 -3.43915e-06
1.19482e-05 6.10602e-06 -1.8164e-06
3.87181e-05 2.84363e-05 -8.52727e-06
2.14825e-05 1.02064e-05 -2.3067e-06
1.55291e-05 3.6599e-06 -1.89938e-06
8.70039e-06 5.00873e-06 -1.95514e-06
-7.28809e-06 2.89474e-05 -1.06692e-05
-8.325e-06 2.05353e-05 -7.14156e-06
8.31763e-06 3.58015e-06 -1.05003e-06
-0.002116 0.001245 -0.000473627
1.43893e-06 7.98667e-07 -4.02169e-08
7.96244e-06 2.46943e-05 -8.22528e-06
3.95184e-05 6.21919e-05 -2.00896e-05
-0.000947044 -0.00270397 -0.0014344
5.40506e-06 8.43559e-06 -2.40691e-06
1.84239e-05 2.71508e-05 -1.01002e-05
1.38411e-07 9.07427e-06 -4.42434e-06
3.67837e-06 4.40434e-07 -2.02322e-07
1.12763e-05 8.12389e-06 -2.69898e-06
-4.82488e-06 1.24797e-06 -6.97832e-07
-1.32829e-05 2.00207e-06 -1.30256e-06
-1.27849e-05 7.69663e-06 -4.68281e-06
-4.01578e-05 8.08694e-05 -2.99555e-05
1.78441e-05 5.8745e-05 -2.13362e-05
-7.15134e-06 3.94359e-05 -1.39947e-05
-2.02708e-05 2.86436e-05 -9.87978e-06
-3.62957e-05 4.89282e-05 -1.68663e-05
-2.52731e-05 2.2205e-05 -7.36866e-06
-6.96824e-05 6.86019e-05 -2.55298e-05
8.55619e-06 5.99446e-06 -1.89715e-06
1.4393e-05 1.1496e-05 -5.06628e-06
1.94406e-05 1.1744e-05 -2.72085e-06
-1.75469e-05 2.24873e-05 -8.66813e-06
-7.31749e-06 3.53462e-06 -6.89844e-07
-5.72589e-06 1.83461e-06 -2.71913e-07
-1.80131e-05 1.07007e-05 -2.77912e-06
0.00160232 0.00142096 -0.000590678
-2.48719e-06 1.25513e-06 -3.85295e-07
-0.000597897 0.00176195 -0.000129172
1.16362e-06 3.51372e-06 -1.24802e-06
1.10484e-06 4.79503e-07 -7.08879e-08
-1.67064e-06 1.08682e-05 -4.21741e-06
9.32724e-07 1.96656e-05 -8.07793e-06
-8.58761e-06 2.00322e-06 -7.17019e-07
-3.16877e-06 2.44929e-06 -7.9588e-07
-1.16536e-06 1.02927e-06 -3.56018e-07
1.66308e-06 3.41581e-05 -1.2156e-05
0.001421 0.000916862 0.00110236
-1.92831e-06 5.28174e-07 -1.4299e-07
-0.000148489 9.17789e-05 -0.000584902
-4.02891e-06 1.57219e-05 -5.62397e-06
4.55526e-06 2.04676e-06 -1.0431e-06
1.50683e-05 2.98692e-05 -9.75713e-06
3.84334e-05 8.98266e-05 -3.01116e-05
1.0165e-05 4.23585e-05 -1.45258e-05
1.73553e-05 1.18208e-05 -2.83446e-06
-4.58508e-06 2.17343e-07 -5.39725e-08
8.17425e-06 2.72934e-06 -5.37047e-07
1.44388e-05 2.07281e-05 -8.03019e-06
-1.08564e-05 2.43205e-05 -8.52961e-06
2.4613e-05 2.78694e-05 -8.75394e-06
-2.1221e-07 1.8308e-06 -7.03408e-07
5.32304e-06 1.82773e-06 -6.89938e-07
7.47492e-06 3.16686e-06 -5.81364e-07
3.80921e-06 9.33701e-06 -3.99489e-06
3.23221e-06 3.99311e-06 -1.32128e-06
0.00251456 0.00105198 0.000454939
4.25536e-06 1.01582e-05 -3.58001e-06
3.04398e-08 1.85626e-07 -5.75556e-08
-6.71561e-06 1.22213e-05 -4.66981e-06
-1.62443e-05 1.3117e-05 -5.0772e-06
-1.14295e-05 7.04455e-06 -2.54251e-06
-4.63563e-06 6.24443e-06 -2.13758e-06
-1.76059e-05 3.18289e-05 -1.11081e-05
-5.52775e-06 2.87518e-06 -1.27351e-06
0.000146322 -0.00167254 0.000731901
-1.82961e-06 3.48769e-08 -1.31192e-08
0.000163809 -0.00111923 0.000729609
-0.00170413 -0.000526877 5.35314e-05
-0.000533707 0.000590208 -0.0002289
-2.34685e-06 1.34829e-06 -6.28328e-07
5.57357e-07 3.97748e-07 -1.11411e-07
-5.17479e-06 1.10963e-05 -4.01871e-06
-9.28701e-07 5.59408e-06 -2.98282e-06
1.11487e-05 1.04791e-05 -3.63551e-06
7.72154e-05 8.63394e-05 -2.73112e-05
1.69201e-05 1.67537e-05 -5.14441e-06
2.15638e-05 2.55173e-05 -7.99832e-06
3.97487e-06 1.6017e-05 -5.46845e-06
-4.61301e-05 0.000330725 8.57224e-05
-2.22917e-05 2.54543e-05 -8.25178e-06
8.69331e-06 1.51865e-05 -4.98035e-06
2.84624e-06 2.22851e-05 -8.7392e-06
-2.87396e-06 1.0839e-06 -2.85575e-07
-2.95344e-05 2.92586e-05 -9.76151e-06
1.06582e-06 1.29545e-06 -3.50967e-07
1.62673e-05 1.53455e-05 -5.26652e-06
-3.41315e-05 2.73703e-05 -9.43219e-06
2.8791e-05 2.8983e-05 -8.87043e-06
3.17057e-05 2.87237e-05 -8.203e-06
1.2761e-06 1.12239e-07 -5.70879e-08
-1.53385e-05 1.33351e-05 -5.48877e-06
-3.15346e-05 1.96475e-05 -7.89291e-06
-1.75951e-05 1.91066e-05 -8.60971e-06
-0.0014318 -0.000467355 -0.0014533
7.39682e-06 1.74511e-05 -5.74939e-06
2.61657e-06 1.24126e-06 -5.86311e-07
-1.044e-05 1.41113e-05 -5.03431e-06
-1.41143e-05 4.0807e-05 -1.43556e-05
-2.62181e-05 1.30449e-05 -4.78234e-06
1.51482e-05 1.13803e-05 -3.05609e-06
2.11141e-05 3.55243e-05 -1.15097e-05
1.37295e-05 3.46529e-05 -1.19036e-05
4.24286e-06 6.94712e-07 -1.36324e-07
0.000300181 0.000196237 0.000353827
1.79145e-06 2.99281e-07 -6.38138e-10
-3.7944e-06 1.34515e-05 -4.71469e-06
-2.04219e-05 1.07028e-05 -4.546e-06
-0.000135814 -0.00110743 -0.000885655
-1.07955e-07 1.34661e-07 -4.69017e-08
-2.08134e-05 1.12554e-05 -3.15609e-06
-8.45831e-06 9.69071e-06 -3.35944e-06
-8.51432e-06 1.7761e-05 -6.30253e-06
1.50683e-05 9.86379e-06 -3.15951e-06
8.57512e-06 1.24222e-05 -4.72463e-06
0.00133108 -0.00165998 -0.000120628
-1.3159e-06 1.01994e-07 -6.25277e-08
2.06193e-05 0.000308953 -0.00022266
1.01063e-05 1.31848e-05 -4.23863e-06
-6.7437e-06 1.40041e-05 -5.01861e-06
-1.89132e-05 3.55531e-05 -1.28935e-05
4.77348e-06 2.53558e-05 -9.37813e-06
1.23489e-05 1.05419e-05 -3.31368e-06
1.18714e-05 1.09243e-05 -3.1325e-06
1.38189e-05 1.9899e-05 -6.37551e-06
-0.00167694 0.000577938 1.07036e-05
2.79318e-05 1.64916e-05 -4.40408e-06
8.12756e-06 4.91315e-06 -1.21679e-06
-1.07391e-05 5.9715e-05 -2.14098e-05
-6.22899e-07 2.41806e-05 -8.33249e-06
-4.31185e-06 2.21335e-06 -5.48458e-07
-9.29602e-06 2.27193e-06 -5.7866e-07
1.31424e-06 2.10755e-07 -8.72138e-08
-0.000661314 -0.00115332 -3.56134e-05
-3.7915e-07 1.02805e-05 -3.59357e-06
-1.52194e-05 9.92019e-06 -3.25645e-06
-4.71441e-06 9.51445e-06 -3.54712e-06
0.000733305 -0.00139978 0.000395304
-0.00217182 0.000346394 0.00088154
1.71063e-06 6.3537e-06 -2.63754e-06
1.07946e-05 2.512e-05 -8.44914e-06
5.81786e-06 2.93176e-06 -5.79892e-07
-3.80069e-06 1.35477e-06 -4.03705e-07
4.81057e-06 1.09523e-05 -3.65443e-06
8.46777e-08 3.35075e-06 -1.43797e-06
-3.69179e-06 1.60698e-05 -5.70671e-06
-2.11052e-06 1.07026e-05 -3.9783e-06
1.37297e-06 1.32842e-05 -5.01343e-06
-4.09954e-06 1.60454e-06 -1.09369e-06
-1.50269e-05 1.07132e-05 -4.2901e-06
-1.16106e-05 7.60546e-06 -2.7497e-06
-6.90352e-06 4.85367e-06 -2.20241e-06
-1.34084e-05 2.03737e-05 -7.64779e-06
8.30196e-06 1.03864e-05 -3.38623e-06
2.20809e-06 1.49867e-06 -9.76517e-07
2.4966e-06 3.49901e-06 -1.9277e-06
2.17702e-06 1.53848e-06 -7.96438e-07
-8.15277e-06 8.89378e-06 -3.243e-06
5.35093e-06 1.75286e-06 -3.0534e-07
-4.65564e-06 2.0741e-05 -7.24566e-06
0.000553348 -0.000884689 -0.000808069
9.00732e-06 2.46648e-05 -8.56827e-06
-2.81875e-06 1.90459e-05 -6.96229e-06
4.51094e-06 2.58865e-05 -8.69436e-06
0.000490127 -0.001221 0.000761181
-8.44191e-07 8.80636e-07 -3.0982e-07
1.35759e-05 1.03289e-05 -2.83214e-06
1.64017e-05 1.93439e-05 -6.45347e-06
6.68914e-06 1.29853e-05 -4.57097e-06
-1.26386e-05 8.3015e-06 -2.30817e-06
-1.35574e-05 1.25757e-05 -3.94943e-06
-1.11979e-05 6.46701e-06 -1.84261e-06
-1.13683e-05 9.73429e-06 -3.05212e-06
1.56604e-07 9.81326e-07 -7.36208e-07
-2.62726e-06 3.25702e-06 -1.8088e-06
4.12261e-06 1.80034e-06 -3.75274e-07
5.55825e-06 2.23847e-06 -4.87659e-07
-1.37958e-06 1.61568e-05 -5.63142e-06
-1.53805e-05 6.26612e-06 -2.81448e-06
9.58888e-07 1.6043e-05 -5.60697e-06
-5.97553e-06 7.57858e-06 -3.25253e-06
-1.79606e-05 1.43716e-05 -4.94376e-06
0.000666042 -0.000817419 0.00021277
-2.50738e-06 2.04559e-07 -1.71462e-08
7.11756e-06 0.000814263 0.000387805
-7.94556e-06 3.05821e-06 -1.36176e-06
-1.36559e-05 5.12865e-06 -1.77551e-06
-3.99134e-06 1.13777e-05 -5.03843e-06
-2.832e-06 8.96256e-06 -3.53619e-06
1.22893e-05 9.37987e-06 -2.54979e-06
1.10112e-05 7.43731e-06 -1.76881e-06
-1.69383e-06 1.2244e-07 1.00747e-08
2.19074e-06 1.25838e-05 -4.38521e-06
3.33466e-06 1.60246e-05 -5.5697e-06
-1.62977e-05 1.22042e-05 -3.82878e-06
7.37072e-06 6.26572e-06 -2.47557e-06
4.35958e-06 1.88277e-06 -5.15856e-07
9.57612e-06 1.58519e-05 -5.27818e-06
-2.33448e-07 2.14241e-06 -8.76005e-07
-2.05891e-06 5.98222e-06 -2.68584e-06
-1.03962e-05 1.79877e-05 -6.95037e-06
-7.94613e-06 5.42597e-06 -1.7801e-06
3.25856e-06 2.03947e-05 -7.09327e-06
-1.01643e-05 5.05658e-06 -1.50951e-06
1.65137e-05 1.43702e-05 -4.20403e-06
-6.31272e-06 1.68401e-06 -3.48168e-07
-0.00121824 -0.00024047 0.000503456
-5.85008e-07 3.01333e-06 -1.39617e-06
1.03476e-05 6.18706e-06 -1.42346e-06
-2.22503e-06 5.75421e-06 -2.03095e-06
-8.28437e-06 3.73984e-06 -8.92461e-07
8.1884e-06 4.48404e-06 -9.87497e-07
3.78293e-07 5.07657e-06 -1.88285e-06
0.00127392 -0.0011815 3.96981e-05
-0.000628337 -3.45622e-05 0.000288288
-4.72661e-06 3.58993e-06 -2.06206e-06
-1.01654e-05 1.11033e-05 -4.30743e-06
5.6296e-06 4.54795e-06 -1.37286e-06
-2.02071e-06 1.55757e-05 -5.45937e-06
-5.27009e-06 5.23651e-06 -1.72387e-06
4.03822e-06 5.96022e-06 -2.71882e-06
-6.02433e-06 1.82734e-05 -6.47106e-06
0.000786496 6.33e-06 0.000609277
-1.18983e-05 1.27097e-05 -4.88714e-06
1.37141e-06 1.1635e-06 -4.07657e-07
0.000941316 -0.000879163 -6.55399e-06
-2.19305e-06 2.06108e-06 -8.08872e-07
0.00183559 -0.000109977 -0.000409695
-1.09295e-05 1.68947e-05 -6.15891e-06
-5.79456e-06 1.00853e-05 -3.7412e-06
3.07866e-05 -0.000505471 0.000189398
8.77691e-07 5.19827e-06 -2.04576e-06
-0.000318238 -0.000362565 -0.000305339
3.79211e-06 5.72755e-06 -1.83163e-06
-3.86173e-06 5.21029e-06 -1.77477e-06
-7.38058e-06 3.12251e-06 -1.74268e-06
6.31402e-06 1.82807e-05 -6.24001e-06
2.22624e-06 2.3607e-06 -7.95099e-07
-0.00113892 -0.00114845 -0.000180355
5.26003e-06 6.2045e-06 -1.94856e-06
3.81977e-06 1.9772e-06 -4.90847e-07
4.73901e-06 5.66791e-06 -1.74252e-06
-0.000990617 -0.00092449 -4.18741e-05
-1.45248e-05 1.1204e-05 -4.02579e-06
-1.24793e-05 1.43921e-05 -5.19138e-06
4.39963e-06 5.85106e-06 -1.84778e-06
-1.52722e-06 5.44558e-06 -1.97456e-06
4.73883e-07 3.55928e-07 -4.05987e-09
0.00018964 0.00127482 -0.000682009
-0.000356632 0.000314766 0.000312798
-0.000142925 -0.000317647 0.0002886
-1.26633e-05 1.09674e-05 -4.11125e-06
-4.2926e-06 4.59265e-06 -1.56635e-06
-8.21227e-06 3.38849e-06 -7.86112e-07
3.34323e-08 5.50938e-06 -2.04545e-06
0.000147149 -0.000342604 0.000268007
0.00016912 0.000871173 0.000281292
1.325e-06 3.15958e-07 4.44351e-08
1.48165e-06 2.81466e-07 -1.00389e-07
-8.35755e-06 1.11369e-05 -4.05903e-06
-4.85607e-07 2.47627e-07 -2.89271e-08
-2.85253e-05 0.000859724 -0.000335837
-5.79878e-06 1.34318e-05 -4.8119e-06
-4.98055e-06 2.62155e-06 -9.65078e-07
7.21231e-06 1.88637e-05 -6.1573e-06