# vtk DataFile Version 4.2
vtk output
ASCII
DATASET UNSTRUCTURED_GRID

POINTS 343 double
0.00112265 0.00419491 9.55221e-08
0.00217133 0.00498247 0.00217539
0 0.00419538 0.00112517
0.00193016 0.00195441 0.00194219
0.00516921 0.0024064 0.00503254
0.00517188 0.00382964 0.00639785
0.00762278 0.00477452 0.00499966
0.00622504 0.00484982 0.00369227
0.00683567 0.00328782 0.00691456
0.00499119 0.00499218 0.00500009
0.00417938 0.00111774 0.0099994
0.00528015 0.00207973 0.00790444
0.00418935 -7.85673e-06 0.00831742
0.00201222 0.00200244 0.00803329
0.00428532 0.00253255 0.00999946
0.00695659 0.00644605 0.00694751
0.0064141 0.0061818 0.00518354
0.00226055 0.00218457 0.00514616
0 0.00143586 0.00417514
0.00159464 0.00346613 0.00403705
0.00683744 0.00319315 0.00316211
0.00774507 0.00221197 0.00506469
0 0.00270918 0.00154168
0.00415864 0.00142813 5.10811e-07
0.005008 0.00218734 0.00219841
0.00396291 0.00352646 0.00160341
0.0013453 -6.20714e-07 0.00406004
0.00418331 -8.18014e-06 0.00168859
0.0026269 0.00695158 2.71744e-07
0.0019386 0.00805271 0.00194495
0.00408836 0.00624788 0.00164542
0.00800309 0.00798488 0.007998
0.00796431 0.00481453 0.00802302
0.00838857 0.00607841 0.00594872
0.0100004 0.00882377 0.00419296
0.00757772 0.00763469 0.00496432
0.00856852 0.00997865 0.00416729
0.00797816 0.00797001 0.00201675
0.00353582 0.00303635 0.00695965
0.00443693 0.00366162 0.00832429
0.00389201 0.00160023 0.00596917
0.00500565 0.00766786 0.00767698
0.0019897 0.00800784 0.00798967
0.00282786 0.00999715 0.00712723
0.00391706 0.00839925 0.00595796
0 0.00695361 0.00262895
0.00164664 0.00623923 0.00408792
0 0.0040177 0.00850214
0.00231504 0.00498566 0.00766155
0.00143322 0.00417445 0.00999997
0.00717454 0.00711718 0.00999845
0.00611791 0.00597012 0.00841779
0.00205209 0.0079414 0.00474188
0.0030439 0.0069428 0.00646779
0.001587 0.00607833 0.00592603
0.00998881 0.00578196 0.00831562
0 0.00718191 0.00711644
0.00158485 0.00577341 8.00767e-08
0 0.00577432 0.00158701
0.00999419 0.00715568 0.00711506
0.00286703 0.00334918 0.00999983
0.0099699 0.0014071 0.00417509
0.00803659 0.00194162 0.00197974
0.0083895 0.00350078 0.00399898
0.00372563 0.00164773 0.00412847
0.00150956 0.00999967 0.00581503
0.00280918 -3.78265e-06 0.00712779
0.00610921 0.0041708 0.00837626
0.00999391 0.00724773 0.00419528
0.00852796 -2.36221e-05 0.00416817
0.00334217 0.0028695 3.43981e-07
0.00269972 0.00153869 0.00999984
0.00281821 -4.15908e-06 0.00283213
0.00479771 0.00519374 0.00755446
0.00315829 0.00314614 0.00316747
0 0.00849157 0.00581511
0.00486495 0.00366913 0.00378646
0.00153721 0.00270864 6.20529e-08
0.00579962 0.00831532 0.00999874
0.00598531 0.00998861 0.00850529
0.00421442 0.00999374 0.00831751
0.00401779 0.008498 0.00999916
0.00999928 0.0084651 0.00581402
0.00314782 0.00683344 0.00315098
0 0.00748929 0.00137438
0.00137366 0.00748899 3.19256e-08
0 0.00287343 0.00335182
0 0.00580816 0.00831736
0 0.00429792 0.00253898
0.00253402 0.00429583 2.74993e-07
0.00143383 0.00581916 0.00999997
0.00517558 0.00646818 0.0064003
0.00360329 0.00650923 0.00823396
0.00693132 0.00261208 0.00999872
0.00799854 0.0019385 0.00803467
0.00694168 -1.7552e-05 0.0030824
0.00600066 0.00165172 0.00361312
0.00997557 0.00284561 0.00335199
0 0.00140616 0.00256446
0.00637384 0.00821599 0.00642065
0.00579705 0.00142257 9.37207e-07
0.00602257 0.00354033 0.00160374
0.00315763 0.00999629 0.00582521
0.00856349 0.00997882 0.0058324
0.00255424 0.00140286 3.00996e-07
0.00595 -1.39465e-05 0.0014951
0.00628134 0.00827603 0.00361733
0.00852306 -2.34392e-05 0.00583296
0.0061861 0.00165979 0.00636507
0.00140222 0.00256405 0.01
0.0071127 0.00716692 5.63961e-07
0.00516614 0.00768184 0.00216915
0.00593728 0.00608328 0.00160229
0 0.00686719 0.00578184
0.00996942 0.00137719 0.00256495
0.00177227 0.00360986 0.00640788
0.00999866 0.0084601 0.00262362
0.00840405 0.00616935 0.00413264
0.00598454 0.00998793 0.00149407
0.00694101 -1.72806e-05 0.00692605
0.00997028 0.00140691 0.00581901
0.00837914 0.00355274 0.00606037
0.00150179 -7.97404e-07 0.00581521
0 0.0013659 0.00748679
0.00136361 -6.78177e-07 0.00752891
0.00999257 0.00684089 0.00578084
0.00581674 0.00848062 4.58704e-07
0 0.0075208 0.00859127
0.00136513 0.00748641 0.00999991
0.00423167 0.00820002 0.00362833
0.0085967 0.00997868 0.00751087
0.0100003 0.0086039 0.00752475
0.00575412 0.00157495 0.00999897
0.00724479 0.00417265 0.0099986
0 0.0057735 0.00666667
0.00137045 0.00999961 0.00752893
0 0.00863025 0.00752641
0.00855427 -2.40653e-05 0.00250805
0.00999228 0.00692701 0.00262896
0.00845148 0.00632183 0.00216316
0.00849971 0.00580385 0.00999823
0.00746448 0.00135583 0.00999848
0.00855615 -2.36837e-05 0.00751098
0.00997034 0.00133737 0.00748545
0 0.00143551 0.00581971
0.0059512 -1.35015e-05 0.00850516
0.00419297 -8.24166e-06 0.00340019
0.00792082 0.0046892 0.00203487
0.00998123 0.00427077 0.00253922
0.00423218 0.00999349 0.00666627
0.00283722 0.00999719 0.00283199
0.001307 -6.73988e-07 0.00241834
0 0.00727418 0.00419576
0.0099882 0.00574722 0.00666542
0.00697896 0.00998452 0.00308152
0.00750854 0.00862048 0.00999837
0 0.00574334 0.00336387
0 0.0043297 0.00416652
0.00686161 0.00577077 0.0099987
0.00997694 0.00299477 0.0069141
0.00420551 -8.05146e-06 0.0066666
0.00248067 0.00999758 0.00861143
0.00745991 0.00134674 1.04722e-06
0.00577016 0.00665713 0.0099988
0.00999598 0.00749467 0.00858933
0.00860541 0.00753325 0.00999813
0.00689564 0.00300658 1.03382e-06
0.00335955 0.00574034 4.58913e-07
0.00752766 0.00861317 4.40577e-07
0.007521 0.00998219 0.0013875
0.0057781 0.00685709 5.32476e-07
0.00696887 0.00635675 0.0030335
0.00748247 -2.00285e-05 0.00138857
0.00288017 0.00499704 0.00999974
0.00432513 0.00582842 0.00999926
0.00432092 0.00416127 0.00999934
0.00752225 0.00998278 0.00861469
0.00246455 -3.20862e-06 0.0086116
0.0099873 0.00571674 0.0033638
0 0.00302218 0.00691532
0.00998137 0.00399098 0.00850041
0.00848369 0.00399627 9.49656e-07
0.00997457 0.00268099 0.00154236
0 0.00244495 0.00857025
0.00244596 0.00856809 0.0099996
0.0074839 -1.95468e-05 0.00861451
0.00846493 0.00260248 0.00999823
0.00883474 0.00417191 0.00999814
0.0056762 0.00998927 0.00583287
0.00518538 0.00757547 0.0050322
0.00564832 0.00998921 0.00421501
0.00697818 0.00998487 0.00692571
0.00302053 0.00691326 0.00999952
0.00415782 0.00432443 6.7137e-07
0.00282118 -4.30872e-06 0.00440483
0.00313731 -4.81635e-06 0.00582561
0.00998057 0.00416795 0.00112582
0.00363866 0.00833302 0.00158849
0.00998171 0.00430272 0.00416631
0.0066579 0.00576023 8.1706e-07
0.008595 0.00997829 0.00250695
0 0.00848692 0.00262374
0.00135228 0.00999964 0.00405989
0 0.00885053 0.00419359
0.00419598 0.00884406 4.14815e-07
0.00420969 0.00999328 0.00168789
0.0049903 0.00478414 0.00237919
0.00720514 0.00450577 9.43934e-07
0.00561583 -1.28085e-05 0.00421581
0.00564378 -1.27491e-05 0.0058333
0.00131382 0.00999965 0.00241807
0.00854534 0.00242238 1.05595e-06
0.00998316 0.00449512 0.0072182
0.00712128 0.00998421 0.00499972
0.00572925 0.00335368 0.00999901
0.00244559 -3.35203e-06 0.00135683
0.00997492 0.00241715 0.00856859
0.00239183 0.00478973 0.00499997
0.0058206 0.00431939 9.21274e-07
0.00830653 0.00578815 7.20799e-07
0.0054852 0.00999006 0.00721988
0.00998204 0.00430331 0.00583249
0.00540841 0.00998984 0.00277555
0.00708362 -1.7881e-05 0.00500043
0.00283963 0.0099972 0.00440439
0 0.00452174 0.00721958
0.00451991 0.00721428 0.00999913
0.00545337 -1.19227e-05 0.00721983
0.00359818 0.00507035 0.00359663
0.00425702 0.00999342 0.00500801
0.00422962 -8.22903e-06 0.00500864
0.00366625 0.00521333 0.00617456
0 0.005744 0.00499998
0 0.00433013 0.00583333
0.00499344 0.00573688 7.54047e-07
0.00498075 0.00633207 0.00355391
0.00537648 -1.20969e-05 0.00277648
0.00998768 0.0057176 0.00499933
0.00368808 0.00640427 0.00484391
0.00573531 0.00499082 0.00999895
0.00998713 0.00574751 0.00158742
0 0.00666667 0
0.00858712 0.00749984 4.59468e-07
0.00331644 -6.39339e-06 1.06139e-06
0 0.01 0.00666667
0.00500641 0.00999119 0.00999922
0 0.00288419 0.00499914
0.0099943 0.00746256 0.0013747
0.00999069 0.00663983 4.88391e-07
0 0.005 0.01
0.00498375 0.00287539 7.37364e-07
0 0.005 0
0.00996379 -2.97894e-05 0.00333372
0.0100058 0.00997282 0.00666515
0.00419405 0.0072688 4.88594e-07
0.00997588 0.0028566 0.00499871
0.00497606 -1.14213e-05 1.28089e-06
0 0 0.00666667
0.00379036 0.00361252 0.00522635
0.00497755 -1.08731e-05 0.00999879
0.00996454 -2.95095e-05 0.00666564
0 0 0.005
0.00878591 0.00997732 0.00122019
0.00999967 0.00875277 0.00122026
0.00996413 -2.95969e-05 0.0049997
0.00998378 0.00497271 7.20218e-07
0.00121564 0.00121922 7.0287e-09
0 0.00122008 0.00122008
0 0.00333333 0.01
0 0.00666667 0.01
0.00878077 0.00875769 2.79949e-07
0.0100051 0.00997247 0.00333279
0.00422018 0.00999337 0.00339956
0.00999274 0.00664065 0.00999792
0 0.00333333 0
0 0.00122008 0.00877992
0.00121482 -8.62714e-07 0.0087797
0.00121603 0.0012195 0.0100001
0.00878734 0.00997787 0.00877834
0.00122 0.00877943 0.0099999
0 0.00877992 0.00877992
0.0100013 0.00875348 0.00877797
0.00667324 0.0099852 9.66673e-08
0.00996834 0.00119076 0.001221
0.00122105 0.00999944 0.00878012
0.0087828 0.00875842 0.00999814
0.00998579 0.00497362 0.00999795
0 0 0.00333333
0.00663668 -1.70034e-05 1.48477e-06
0.00874499 -2.50945e-05 0.00122137
0.00120597 -8.87593e-07 0.00121212
0 0.00877992 0.00122008
0.00122016 0.0087794 1.15374e-07
0.0012125 0.00999949 0.00121144
0.00996996 0.00119136 0.00877806
0.00875177 0.00119625 0.00999806
0.00663864 -1.64634e-05 0.00999821
0.00874969 0.00119562 1.17813e-06
0.00874663 -2.45701e-05 0.00877807
0.00997695 0.00330538 9.0016e-07
0.00333808 0.00999532 0.00999982
0.0024623 0.00999775 0.00135641
0.00667468 0.00998586 0.00999888
0.00997889 0.00330631 0.00999794
0 0.01 0.005
0.00262458 0.00848455 2.87465e-07
0.0100054 0.00997265 0.00499904
0 0.01 0.00333333
0 0.00166667 0
0.00996347 -3.00525e-05 0.00166765
0 0.00166667 0.01
0 0.00833333 0
0.00999769 0.00830619 2.50357e-07
0.00996492 -2.95837e-05 0.00833148
0.0100048 0.00997226 0.00166661
0.0100062 0.00997285 0.0083315
0.00166899 0.00999844 0.00999997
0 0.01 0.00833333
0.00833952 0.00997889 1.3018e-07
0.00829921 -2.3624e-05 1.4071e-06
0.0083013 -2.30654e-05 0.00999791
0.00834123 0.00997943 0.00999836
0 0 0.00833333
0.00999975 0.00830702 0.00999788
0.00165789 -2.21756e-06 3.22272e-07
0 0 0.00166667
0.00333833 0.00999552 2.43216e-07
0.00997205 0.00163813 0.00999787
0.00997003 0.00163747 1.03307e-06
0.00165875 -1.82458e-06 0.01
0.00166896 0.00999876 1.19351e-07
0 0.01 0.00166667
0.0100067 0.00997285 0.00999797
0 0 0.01
0.0100046 0.00997209 -3.14839e-08
0.00996525 -2.96865e-05 0.00999757
0 0.01 0.01
0.00996316 -3.0285e-05 1.30011e-06
0 0.01 0
0 0 0
0.00500605 0.00999069 2.04953e-07
0.00331758 -5.73645e-06 0.00999927
0 0.00833333 0.01

CELLS 343 686
1 0
1 1
1 2
1 3
1 4
1 5
1 6
1 7
1 8
1 9
1 10
1 11
1 12
1 13
1 14
1 15
1 16
1 17
1 18
1 19
1 20
1 21
1 22
1 23
1 24
1 25
1 26
1 27
1 28
1 29
1 30
1 31
1 32
1 33
1 34
1 35
1 36
1 37
1 38
1 39
1 40
1 41
1 42
1 43
1 44
1 45
1 46
1 47
1 48
1 49
1 50
1 51
1 52
1 53
1 54
1 55
1 56
1 57
1 58
1 59
1 60
1 61
1 62
1 63
1 64
1 65
1 66
1 67
1 68
1 69
1 70
1 71
1 72
1 73
1 74
1 75
1 76
1 77
1 78
1 79
1 80
1 81
1 82
1 83
1 84
1 85
1 86
1 87
1 88
1 89
1 90
1 91
1 92
1 93
1 94
1 95
1 96
1 97
1 98
1 99
1 100
1 101
1 102
1 103
1 104
1 105
1 106
1 107
1 108
1 109
1 110
1 111
1 112
1 113
1 114
1 115
1 116
1 117
1 118
1 119
1 120
1 121
1 122
1 123
1 124
1 125
1 126
1 127
1 128
1 129
1 130
1 131
1 132
1 133
1 134
1 135
1 136
1 137
1 138
1 139
1 140
1 141
1 142
1 143
1 144
1 145
1 146
1 147
1 148
1 149
1 150
1 151
1 152
1 153
1 154
1 155
1 156
1 157
1 158
1 159
1 160
1 161
1 162
1 163
1 164
1 165
1 166
1 167
1 168
1 169
1 170
1 171
1 172
1 173
1 174
1 175
1 176
1 177
1 178
1 179
1 180
1 181
1 182
1 183
1 184
1 185
1 186
1 187
1 188
1 189
1 190
1 191
1 192
1 193
1 194
1 195
1 196
1 197
1 198
1 199
1 200
1 201
1 202
1 203
1 204
1 205
1 206
1 207
1 208
1 209
1 210
1 211
1 212
1 213
1 214
1 215
1 216
1 217
1 218
1 219
1 220
1 221
1 222
1 223
1 224
1 225
1 226
1 227
1 228
1 229
1 230
1 231
1 232
1 233
1 234
1 235
1 236
1 237
1 238
1 239
1 240
1 241
1 242
1 243
1 244
1 245
1 246
1 247
1 248
1 249
1 250
1 251
1 252
1 253
1 254
1 255
1 256
1 257
1 258
1 259
1 260
1 261
1 262
1 263
1 264
1 265
1 266
1 267
1 268
1 269
1 270
1 271
1 272
1 273
1 274
1 275
1 276
1 277
1 278
1 279
1 280
1 281
1 282
1 283
1 284
1 285
1 286
1 287
1 288
1 289
1 290
1 291
1 292
1 293
1 294
1 295
1 296
1 297
1 298
1 299
1 300
1 301
1 302
1 303
1 304
1 305
1 306
1 307
1 308
1 309
1 310
1 311
1 312
1 313
1 314
1 315
1 316
1 317
1 318
1 319
1 320
1 321
1 322
1 323
1 324
1 325
1 326
1 327
1 328
1 329
1 330
1 331
1 332
1 333
1 334
1 335
1 336
1 337
1 338
1 339
1 340
1 341
1 342

CELL_TYPES 343
1
1
1
1
1
1
1
1
1
1
1
1
1
1
1
1
1
1
1
1
1
1
1
1
1
1
1
1
1
1
1
1
1
1
1
1
1
1
1
1
1
1
1
1
1
1
1
1
1
1
1
1
1
1
1
1
1
1
1
1
1
1
1
1
1
1
1
1
1
1
1
1
1
1
1
1
1
1
1
1
1
1
1
1
1
1
1
1
1
1
1
1
1
1
1
1
1
1
1
1
1
1
1
1
1
1
1
1
1
1
1
1
1
1
1
1
1
1
1
1
1
1
1
1
1
1
1
1
1
1
1
1
1
1
1
1
1
1
1
1
1
1
1
1
1
1
1
1
1
1
1
1
1
1
1
1
1
1
1
1
1
1
1
1
1
1
1
1
1
1
1
1
1
1
1
1
1
1
1
1
1
1
1
1
1
1
1
1
1
1
1
1
1
1
1
1
1
1
1
1
1
1
1
1
1
1
1
1
1
1
1
1
1
1
1
1
1
1
1
1
1
1
1
1
1
1
1
1
1
1
1
1
1
1
1
1
1
1
1
1
1
1
1
1
1
1
1
1
1
1
1
1
1
1
1
1
1
1
1
1
1
1
1
1
1
1
1
1
1
1
1
1
1
1
1
1
1
1
1
1
1
1
1
1
1
1
1
1
1
1
1
1
1
1
1
1
1
1
1
1
1
1
1
1
1
1
1
1
1
1
1
1
1
1
1
1
1
1
1
1
1
1
1
1
1
1
1
1
1
1
1
1
1
1
1
1
1
1
1
1
1
1
1

POINT_DATA 343
FIELD FieldData 8

NodeID_(#) 1 343 int
0
1
2
3
4
5
6
7
8
9
10
11
12
13
14
15
16
17
18
19
20
21
22
23
24
25
26
27
28
29
30
31
32
33
34
35
36
37
38
39
40
41
42
43
44
45
46
47
48
49
50
51
52
53
54
55
56
57
58
59
60
61
62
63
64
65
66
67
68
69
70
71
72
73
74
75
76
77
78
79
80
81
82
83
84
85
86
87
88
89
90
91
92
93
94
95
96
97
98
99
100
101
102
103
104
105
106
107
108
109
110
111
112
113
114
115
116
117
118
119
120
121
122
123
124
125
126
127
128
129
130
131
132
133
134
135
136
137
138
139
140
141
142
143
144
145
146
147
148
149
150
151
152
153
154
155
156
157
158
159
160
161
162
163
164
165
166
167
168
169
170
171
172
173
174
175
176
177
178
179
180
181
182
183
184
185
186
187
188
189
190
191
192
193
194
195
196
197
198
199
200
201
202
203
204
205
206
207
208
209
210
211
212
213
214
215
216
217
218
219
220
221
222
223
224
225
226
227
228
229
230
231
232
233
234
235
236
237
238
239
240
241
242
243
244
245
246
247
248
249
250
251
252
253
254
255
256
257
258
259
260
261
262
263
264
265
266
267
268
269
270
271
272
273
274
275
276
277
278
279
280
281
282
283
284
285
286
287
288
289
290
291
292
293
294
295
296
297
298
299
300
301
302
303
304
305
306
307
308
309
310
311
312
313
314
315
316
317
318
319
320
321
322
323
324
325
326
327
328
329
330
331
332
333
334
335
336
337
338
339
340
341
342

Component_(#) 1 343 int
0
0
0
0
0
0
0
0
0
0
0
0
0
0
0
0
0
0
0
0
0
0
0
0
0
0
0
0
0
0
0
0
0
0
0
0
0
0
0
0
0
0
0
0
0
0
0
0
0
0
0
0
0
0
0
0
0
0
0
0
0
0
0
0
0
0
0
0
0
0
0
0
0
0
0
0
0
0
0
0
0
0
0
0
0
0
0
0
0
0
0
0
0
0
0
0
0
0
0
0
0
0
0
0
0
0
0
0
0
0
0
0
0
0
0
0
0
0
0
0
0
0
0
0
0
0
0
0
0
0
0
0
0
0
0
0
0
0
0
0
0
0
0
0
0
0
0
0
0
0
0
0
0
0
0
0
0
0
0
0
0
0
0
0
0
0
0
0
0
0
0
0
0
0
0
0
0
0
0
0
0
0
0
0
0
0
0
0
0
0
0
0
0
0
0
0
0
0
0
0
0
0
0
0
0
0
0
0
0
0
0
0
0
0
0
0
0
0
0
0
0
0
0
0
0
0
0
0
0
0
0
0
0
0
0
0
0
0
0
0
0
0
0
0
0
0
0
0
0
0
0
0
0
0
0
0
0
0
0
0
0
0
0
0
0
0
0
0
0
0
0
0
0
0
0
0
0
0
0
0
0
0
0
0
0
0
0
0
0
0
0
0
0
0
0
0
0
0
0
0
0
0
0
0
0
0
0
0
0
0
0
0
0
0
0
0
0
0
0
0
0
0
0
0
0
0
0
0
0
0
0
0
0
0
0
0
0
0
0
0
0
0
0

NodalMass_(kg) 1 343 double
3.15563e-06
1.41304e-05
2.20912e-06
1.71484e-05
8.42e-06
9.09306e-06
9.93033e-06
7.52198e-06
6.81096e-06
5.58223e-06
3.10888e-06
1.07575e-05
4.87011e-06
1.64955e-05
3.0246e-06
8.05984e-06
6.703e-06
1.0877e-05
4.18978e-06
8.16106e-06
6.14143e-06
1.17902e-05
2.23114e-06
4.25176e-06
1.09915e-05
7.41467e-06
4.21871e-06
3.92484e-06
3.08766e-06
1.31268e-05
7.72627e-06
1.65404e-05
1.19037e-05
7.29666e-06
3.81683e-06
1.11001e-05
3.81317e-06
1.39137e-05
6.37414e-06
8.00975e-06
7.6712e-06
1.18847e-05
1.6399e-05
2.78633e-06
8.93599e-06
2.58087e-06
7.57362e-06
4.23241e-06
1.31286e-05
3.80168e-06
2.7746e-06
7.16776e-06
1.21307e-05
5.11765e-06
8.19728e-06
4.58094e-06
2.79503e-06
3.26126e-06
4.12443e-06
2.11915e-06
3.35177e-06
3.61669e-06
1.56838e-05
7.33679e-06
8.24695e-06
5.00369e-06
2.82625e-06
7.20276e-06
3.26815e-06
4.18751e-06
2.02785e-06
2.42152e-06
3.11835e-06
5.97459e-06
5.87101e-06
4.09374e-06
5.45463e-06
2.28825e-06
4.49759e-06
4.38192e-06
4.50892e-06
4.39234e-06
4.27273e-06
5.32031e-06
1.53201e-06
2.38869e-06
2.02885e-06
4.38798e-06
3.17972e-06
3.14298e-06
4.61567e-06
5.87645e-06
8.18088e-06
2.48341e-06
1.53815e-05
3.49683e-06
7.35227e-06
2.01314e-06
2.0408e-06
7.98183e-06
4.41293e-06
7.1389e-06
1.20123e-06
5.03343e-06
1.61257e-06
4.12601e-06
8.73748e-06
4.37849e-06
7.97173e-06
2.13557e-06
3.38137e-06
9.48623e-06
7.40262e-06
1.80226e-06
2.10222e-06
7.98889e-06
1.87983e-06
7.44814e-06
4.19782e-06
2.37156e-06
4.31705e-06
6.06441e-06
4.30905e-06
2.16843e-06
1.8986e-06
1.81294e-06
3.89762e-06
2.44299e-06
1.65628e-06
8.01374e-06
1.64513e-06
2.3931e-06
3.01363e-06
2.99431e-06
1.36541e-06
1.87293e-06
2.09622e-06
1.94762e-06
1.87618e-06
6.37913e-06
4.58628e-06
2.02767e-06
1.61999e-06
2.41284e-06
3.8865e-06
4.44973e-06
2.29839e-06
1.17349e-05
3.11811e-06
1.354e-06
3.45063e-06
1.81846e-06
2.9382e-06
1.37381e-06
2.41464e-06
2.10451e-06
2.63927e-06
2.14166e-06
1.7943e-06
3.19976e-06
1.36989e-06
2.43489e-06
2.08158e-06
1.3601e-06
2.17203e-06
1.89924e-06
3.16996e-06
2.6119e-06
2.37677e-06
1.60225e-06
1.90684e-06
5.49206e-06
1.87878e-06
3.14313e-06
2.97301e-06
1.18454e-06
1.89263e-06
2.04166e-06
2.73572e-06
2.42405e-06
3.23083e-06
3.19752e-06
3.2142e-06
1.94492e-06
1.61196e-06
1.86876e-06
3.22435e-06
2.1114e-06
2.96917e-06
6.15288e-06
2.3097e-06
2.39729e-06
2.38029e-06
2.64508e-06
1.66557e-06
1.82377e-06
2.06583e-06
5.73271e-06
2.08467e-06
2.18324e-06
2.43522e-06
3.1188e-06
3.17316e-06
2.05447e-06
1.9592e-06
3.05718e-06
6.44327e-06
2.08796e-06
2.72615e-06
2.15709e-06
1.86812e-06
2.0028e-06
2.10999e-06
2.88994e-06
2.3222e-06
2.3979e-06
1.97629e-06
6.4127e-06
2.16225e-06
3.29198e-06
2.10223e-06
2.66566e-06
1.94415e-06
2.91865e-06
2.58116e-06
2.11703e-06
2.09534e-06
1.91719e-06
7.06046e-06
2.25203e-06
2.06378e-06
6.28159e-06
2.12147e-06
2.90924e-06
2.12921e-06
6.4487e-06
1.41701e-06
2.0682e-06
6.58062e-06
2.52584e-06
2.39732e-06
7.42191e-07
2.22368e-06
7.06751e-07
7.00657e-07
8.93749e-07
2.53536e-06
2.26535e-06
1.33607e-06
7.84725e-07
2.32303e-06
6.06694e-07
6.68276e-07
6.84307e-07
2.51242e-06
2.31629e-06
7.8367e-07
6.80839e-07
6.22692e-06
6.7471e-07
6.65305e-07
7.01158e-07
1.8232e-06
1.90695e-06
6.86722e-07
7.04792e-07
1.86445e-06
2.28572e-06
6.8045e-07
7.16005e-07
1.82373e-06
6.01079e-07
2.02791e-06
7.4579e-07
5.74423e-07
1.80052e-06
1.454e-06
2.2702e-06
1.80636e-06
2.15356e-06
1.79089e-06
1.79456e-06
6.8231e-07
2.24737e-06
1.45239e-06
1.79556e-06
6.97875e-07
6.24265e-07
6.62717e-07
1.44627e-06
1.40138e-06
2.15258e-06
1.82851e-06
1.3994e-06
1.43932e-06
2.19226e-06
6.97732e-07
1.77726e-06
1.79162e-06
6.54258e-07
7.3397e-07
2.34895e-06
7.10392e-07
6.56982e-07
6.26314e-07
2.18926e-06
6.12493e-07
6.03901e-07
5.92831e-07
5.12031e-07
5.11667e-07
4.9467e-07
4.97016e-07
4.96269e-07
5.33079e-07
4.94191e-07
4.97855e-07
4.86862e-07
4.90626e-07
4.94649e-07
4.94954e-07
4.91922e-07
4.89615e-07
4.96354e-07
4.95189e-07
4.82188e-07
1.10854e-06
5.3299e-07
5.44763e-07
5.36655e-07
5.15417e-07
5.01772e-07
5.53774e-07
5.53774e-07
5.53774e-07
5.53774e-07
5.53774e-07
5.53774e-07
5.50785e-07
5.50785e-07
7.45291e-07
7.11668e-07
4.9897e-07

NodalForce_(N) 3 343 double
-1.12101e-08 -4.549e-09 -3.53445e-09
3.54054e-08 -7.18917e-08 -1.43531e-08
0.000390184 0.000405599 0.000431923
-1.39316e-07 -4.07392e-08 -1.17155e-08
2.3591e-08 -1.48177e-07 -1.41646e-07
2.607e-07 -2.01207e-07 -1.94575e-07
1.90782e-07 -4.06868e-07 -5.63574e-07
-1.42813e-08 -2.40836e-07 -2.38766e-07
2.89668e-07 -2.03291e-07 -3.24645e-07
1.06334e-07 -1.28958e-07 -8.70039e-08
1.26154e-07 -1.62744e-08 -9.19944e-08
3.98686e-07 -1.59878e-07 -3.43936e-07
9.65252e-08 -1.90718e-09 -1.10696e-07
-1.33689e-08 -3.55602e-08 -2.10758e-08
1.46371e-07 -3.50445e-08 -9.5326e-08
5.26263e-07 -3.03541e-07 -4.11993e-07
2.12243e-07 -2.34174e-07 -2.3705e-07
-5.69541e-08 -4.72394e-08 -1.2531e-08
-0.00130165 0.000710517 -0.000182966
-1.41705e-08 -1.7317e-08 -5.13723e-09
-1.45952e-07 -1.82583e-07 -2.64658e-07
6.53632e-08 -3.5475e-07 -7.05327e-07
-0.000545682 -0.0016662 -0.000850849
-2.14624e-07 -3.36918e-08 -1.14885e-07
-3.42573e-07 -1.58685e-07 -2.79747e-07
-1.67734e-07 -1.03766e-07 -1.36306e-07
-2.70956e-08 3.11956e-09 -4.23711e-10
-1.39217e-07 -1.57961e-08 -7.50303e-08
-2.78583e-08 -2.53282e-08 -3.40057e-08
1.84415e-07 -4.73486e-08 -1.74657e-08
-3.16464e-08 -1.39991e-07 -1.508e-07
1.61552e-06 -6.80189e-07 -1.26261e-06
9.31493e-07 -4.97387e-07 -8.76847e-07
3.16552e-07 -3.48302e-07 -5.49896e-07
3.42759e-08 -1.94386e-07 -4.05834e-07
4.01726e-07 -4.52933e-07 -6.24478e-07
1.05836e-07 -1.27849e-07 -2.96933e-07
-3.091e-07 -6.19328e-07 -9.85357e-07
7.2386e-08 -7.39886e-08 -5.43016e-08
3.07835e-07 -1.36499e-07 -2.06316e-07
1.7606e-08 -5.83713e-08 -4.8621e-08
8.02976e-07 -2.44937e-07 -3.48121e-07
3.90008e-07 -5.27979e-08 -5.07774e-08
1.16414e-07 -1.04178e-08 -1.81871e-08
3.79215e-07 -1.18473e-07 -8.60335e-08
0.000951024 0.000773474 -0.000383864
5.8724e-08 -2.42667e-08 -4.48963e-09
-0.000217966 0.00103609 1.42354e-05
1.78961e-07 -7.30156e-08 -3.91143e-08
3.75959e-08 -9.46564e-09 -9.98304e-09
3.223e-07 -9.57656e-08 -2.05272e-07
5.47192e-07 -2.14166e-07 -3.44011e-07
2.23082e-07 -5.39518e-08 -1.52159e-08
1.32369e-07 -4.86708e-08 -2.6145e-08
7.51732e-08 -2.32989e-08 -5.81135e-09
3.61777e-07 -2.46208e-07 -5.26549e-07
0.000803982 0.00059024 0.000690137
-6.93167e-09 -1.15093e-08 -1.14028e-08
-0.000111105 -1.38171e-05 -0.000348757
1.32025e-07 -1.14493e-07 -2.38002e-07
1.15957e-07 -2.59023e-08 -5.26709e-08
-9.31876e-08 -1.29399e-07 -3.8067e-07
-9.11623e-07 -4.83772e-07 -1.07361e-06
-8.22956e-08 -2.9603e-07 -5.32765e-07
-6.04777e-08 -6.56213e-08 -3.45186e-08
9.86074e-08 5.29874e-09 -6.22287e-09
-1.12901e-08 4.68702e-09 -9.66301e-09
4.57944e-07 -2.00952e-07 -3.39551e-07
3.68627e-09 -1.80412e-07 -3.45243e-07
-1.04382e-07 -8.44208e-08 -3.1236e-07
-7.72098e-08 -1.93713e-08 -3.55693e-08
5.98231e-08 -4.50835e-09 -3.32415e-08
-4.19823e-08 -1.06325e-09 -1.26131e-08
2.72334e-07 -1.24698e-07 -1.4912e-07
-2.32663e-08 -5.27489e-08 -1.62099e-08
0.00144511 0.000582716 0.000328503
-1.94191e-08 -1.0688e-07 -8.08482e-08
-2.52252e-08 -2.4818e-09 -6.01079e-09
5.03097e-07 -1.01918e-07 -2.45181e-07
4.50309e-07 -7.78953e-08 -2.13701e-07
3.34267e-07 -4.60589e-08 -1.08877e-07
3.55303e-07 -5.23594e-08 -1.37684e-07
1.81809e-07 -2.244e-07 -4.63312e-07
8.46597e-08 -6.17884e-08 -1.74068e-08
4.51026e-05 -0.00109727 0.000395637
1.1212e-08 -3.26127e-09 -4.85219e-09
0.000104505 -0.000699407 0.000432941
-0.000807122 -0.000340346 6.43769e-05
-0.000293834 0.000274179 -0.000160311
-6.57057e-08 -2.143e-08 -3.08766e-08
7.50738e-08 -9.74457e-09 -1.34354e-08
2.6939e-07 -1.43552e-07 -1.36454e-07
3.75633e-07 -9.98355e-08 -1.39081e-07
2.09645e-07 -6.08627e-08 -1.68796e-07
9.47404e-07 -4.39114e-07 -1.11436e-06
-1.48246e-07 -4.59323e-08 -1.5815e-07
-1.6428e-07 -1.3373e-07 -2.16206e-07
-7.45083e-08 -8.94642e-08 -2.14763e-07
-5.06529e-05 0.00012288 7.91853e-06
5.2911e-07 -2.36618e-07 -3.11378e-07
-3.18053e-07 -6.46595e-08 -2.1148e-07
-2.76158e-07 -1.83413e-07 -3.00605e-07
4.84355e-08 -6.1182e-09 -5.77419e-09
3.20278e-07 -1.59507e-07 -3.93583e-07
-5.39334e-08 -6.2457e-09 -1.75679e-08
-2.41338e-07 -3.78485e-08 -1.70693e-07
1.84173e-07 -2.64338e-07 -3.01757e-07
4.23665e-08 -8.60487e-08 -3.29423e-07
1.77686e-07 -1.44006e-07 -2.73593e-07
8.1216e-09 -2.25072e-09 -4.59202e-09
-1.73141e-07 -1.36046e-07 -2.42122e-07
3.58656e-08 -2.35208e-07 -2.68778e-07
-1.70629e-07 -2.45419e-07 -3.17127e-07
-0.000761232 -0.000352214 -0.000809969
-1.26319e-07 -7.52643e-08 -2.25536e-07
1.20561e-08 -2.22576e-08 -5.9235e-09
-4.96489e-08 -1.00127e-07 -2.08836e-07
4.77684e-08 -3.63719e-07 -5.38019e-07
5.23165e-09 -8.19048e-08 -1.91887e-07
6.285e-08 -2.57478e-08 -1.12957e-07
3.98213e-08 -1.49954e-07 -4.54204e-07
1.9523e-07 -2.47472e-07 -4.52159e-07
-2.18468e-08 3.02106e-09 -7.44874e-10
0.00023101 0.000172606 0.000138239
-4.74264e-09 2.14167e-09 1.00517e-09
6.06358e-08 -1.00193e-07 -1.95907e-07
-1.14262e-07 -1.06278e-07 -2.0424e-07
-0.000101079 -0.000747958 -0.0004473
3.38235e-08 -1.04671e-09 -6.15484e-09
2.17641e-07 -1.32879e-07 -7.31433e-08
1.59681e-07 -5.1396e-08 -1.407e-07
1.87278e-07 -1.23039e-07 -2.73419e-07
2.02969e-07 -4.32923e-08 -1.51484e-07
2.94131e-07 -1.01288e-07 -2.20245e-07
0.000609335 -0.00113599 -0.000111284
3.58173e-08 3.41524e-10 -7.74745e-10
5.17488e-05 7.10388e-05 -0.000218398
-1.14994e-07 -3.86542e-08 -1.50364e-07
-6.30311e-08 -1.08772e-07 -2.04534e-07
-2.13796e-07 -3.21747e-07 -4.96442e-07
5.46746e-07 -2.01694e-07 -4.32817e-07
1.68082e-07 -4.33674e-08 -1.54212e-07
6.87625e-08 -2.91897e-08 -1.29419e-07
1.02537e-07 -7.8486e-08 -2.6269e-07
-0.00105825 0.000298763 7.88741e-05
1.82801e-07 -2.81624e-08 -1.93879e-07
-4.80528e-08 -7.56767e-09 -2.29931e-08
-4.79543e-07 -4.87519e-07 -7.87485e-07
-1.49121e-07 -1.59036e-07 -3.35352e-07
8.16893e-08 -1.33165e-08 -2.06866e-08
1.03241e-07 -8.24436e-09 -1.28442e-08
-1.20424e-08 5.70214e-10 1.19964e-09
-0.000295541 -0.000733847 -7.37354e-05
6.473e-08 -7.5577e-08 -1.49558e-07
3.98855e-08 -5.8807e-08 -1.18355e-07
2.71919e-07 -6.80515e-08 -1.72725e-07
0.000509435 -0.000859014 0.000260414
-0.00146541 0.000131195 0.000516729
1.88121e-07 -6.05582e-08 -1.23659e-07
1.23542e-07 -1.4607e-07 -3.44369e-07
7.4964e-09 -1.15207e-09 -1.66428e-08
1.10093e-07 -8.41186e-09 -1.98984e-08
-1.86223e-07 -4.84751e-08 -1.55383e-07
1.33071e-07 -3.50744e-08 -7.37462e-08
2.0372e-07 -1.14762e-07 -2.54489e-07
2.47025e-07 -8.1407e-08 -1.8585e-07
-2.3359e-07 -9.22649e-08 -2.07384e-07
-5.69774e-08 -3.39202e-08 -4.79823e-08
-1.14474e-07 -9.16856e-08 -1.89014e-07
-2.79122e-08 -4.57492e-08 -1.11922e-07
-7.49023e-08 -5.93625e-08 -9.92823e-08
-3.87591e-08 -2.21095e-07 -2.58851e-07
-1.35294e-07 -2.70751e-08 -1.21532e-07
1.34031e-07 -2.1494e-08 -5.23653e-08
2.12149e-07 -4.81654e-08 -1.03102e-07
7.02126e-08 -1.83872e-08 -4.09246e-08
2.19299e-07 -4.88044e-08 -1.39363e-07
1.01097e-08 4.55222e-09 -1.21274e-08
-6.23611e-08 -1.53374e-07 -2.89246e-07
0.000302344 -0.000711725 -0.000594682
2.41234e-07 -1.59808e-07 -3.69627e-07
-2.86626e-07 -1.3626e-07 -2.99277e-07
-2.47936e-07 -1.4202e-07 -3.52101e-07
0.000302901 -0.00082382 0.000420574
8.44738e-08 -7.41861e-09 -2.29189e-08
1.07516e-07 -2.17877e-08 -1.25027e-07
3.24353e-07 -1.08292e-07 -2.97e-07
2.32342e-07 -9.06841e-08 -2.09524e-07
1.97271e-07 -4.79964e-08 -7.92371e-08
2.39781e-07 -1.48729e-07 -1.14951e-07
9.85343e-08 -3.79668e-08 -5.73417e-08
2.05373e-07 -5.60272e-08 -1.20888e-07
1.31173e-07 -1.94137e-08 -4.68624e-08
-1.05647e-07 -4.53188e-08 -7.58242e-08
-1.36768e-08 9.80006e-11 1.46081e-10
-1.14848e-08 1.75013e-09 -3.17563e-09
-1.61712e-07 -1.05777e-07 -2.3448e-07
5.84406e-08 -7.54535e-08 -9.17756e-08
-2.61514e-08 -1.07521e-07 -2.20418e-07
-1.21188e-07 -8.39216e-08 -1.40079e-07
-1.69545e-08 -8.20807e-08 -1.9854e-07
0.000325268 -0.000439588 0.000198863
4.94528e-08 2.94692e-09 -2.02315e-09
-1.43912e-05 0.000483896 0.000154853
-1.92494e-08 -3.00569e-08 -6.01829e-08
5.23567e-08 -2.72039e-08 -6.41358e-08
-8.70871e-08 -1.50245e-07 -1.55595e-07
-1.43334e-07 -7.78762e-08 -1.48351e-07
-5.27536e-08 -2.01243e-08 -5.8235e-08
1.18943e-08 -1.38636e-08 -5.14992e-08
2.52119e-08 1.92312e-09 -3.01364e-11
-1.97153e-07 -7.17288e-08 -1.88112e-07
1.09256e-07 -1.08861e-07 -2.31409e-07
1.46764e-07 -7.03945e-08 -1.42529e-07
1.74736e-07 -4.9748e-08 -1.19076e-07
-4.77644e-08 -3.43432e-09 -1.05609e-08
1.3583e-07 -7.89685e-08 -2.25025e-07
4.18528e-08 -4.26222e-08 -1.04972e-08
-1.19902e-07 -5.9848e-08 -1.10149e-07
-2.54738e-07 -1.64867e-07 -3.06939e-07
1.69181e-07 -3.25856e-08 -6.67527e-08
6.04389e-08 -1.37724e-07 -2.85813e-07
4.71361e-08 -3.13068e-08 -5.43571e-08
-2.26282e-08 -3.81321e-08 -1.35742e-07
8.70326e-08 -6.70002e-09 -5.69963e-09
-0.00075952 -0.000168093 0.000246934
1.74805e-07 -3.28777e-08 -7.83675e-08
4.03222e-08 -1.02716e-08 -5.56014e-08
5.24629e-08 -9.59993e-08 -2.82111e-08
1.05499e-07 -1.97959e-08 -2.25048e-08
-1.82017e-08 -3.90355e-09 -1.13034e-08
1.27957e-07 -8.69639e-08 -4.68645e-08
0.000765681 -0.000815977 3.35296e-06
-0.000263516 -5.75486e-05 0.000205007
-8.32908e-08 -5.63831e-08 -8.72859e-08
7.89905e-08 -1.57149e-07 -1.04406e-07
-5.051e-08 -1.04797e-08 -3.6715e-08
2.60518e-08 -1.16602e-07 -2.20002e-07
1.38617e-07 -9.48073e-08 -3.3322e-08
2.14727e-07 -6.48407e-08 -1.33785e-07
-1.46208e-07 -1.3649e-07 -2.68822e-07
0.000402168 -1.122e-05 0.000308231
-1.58448e-07 -1.09744e-07 -2.19507e-07
-3.11746e-08 2.088e-09 -1.57176e-08
0.000605828 -0.000543546 -5.71195e-06
9.65629e-08 -7.43982e-09 -4.3698e-08
0.00105773 -0.000236517 -0.000231399
-1.32213e-07 -1.31949e-07 -2.5974e-07
-1.19771e-07 -7.77921e-08 -1.68654e-07
7.32339e-05 -0.000345881 5.67414e-05
-1.28117e-07 -3.9167e-08 -8.85793e-08
-0.000253481 -0.000292577 -0.000246397
-3.0542e-08 -1.44983e-08 -7.04818e-08
4.37418e-08 -2.46245e-08 -7.52792e-08
-4.82493e-08 -4.52047e-08 -7.71446e-08
-2.17315e-09 -1.04666e-07 -2.46067e-07
-5.23736e-08 -8.34614e-10 -3.26496e-08
-0.000737744 -0.000775416 -0.000101473
4.34725e-08 -8.30642e-08 -3.33962e-08
3.13789e-08 -3.22092e-09 -2.8217e-08
1.53992e-08 -1.44351e-08 -6.99724e-08
-0.00062909 -0.000588064 -2.75734e-05
-6.45353e-08 -6.54125e-08 -1.70602e-07
-1.05723e-07 -9.92635e-08 -2.21489e-07
-7.16882e-09 -1.50428e-08 -7.16081e-08
-6.83419e-08 -3.96944e-08 -8.83514e-08
-1.80466e-08 -1.9372e-09 -4.09197e-09
0.000168008 0.000740008 -0.00033206
-0.000147561 0.000128919 0.000121619
7.16812e-06 -0.000247545 9.10129e-05
-1.20632e-07 -8.41884e-08 -1.85774e-07
-3.79986e-09 -2.34192e-08 -6.49819e-08
6.9532e-08 -1.79286e-08 -2.1473e-08
8.83948e-08 -3.92462e-08 -9.42906e-08
3.12201e-05 -0.00019778 0.000111803
9.56033e-05 0.00057207 0.000167951
-8.94908e-10 1.56469e-09 -2.10943e-09