# vtk DataFile Version 4.2
vtk output
ASCII
DATASET UNSTRUCTURED_GRID

POINTS 343 double
0.00112254 0.00419491 8.81682e-08
0.00217117 0.0049825 0.00217535
0 0.00419538 0.00112517
0.00193011 0.00195444 0.00194215
0.00516957 0.00240674 0.00503217
0.00517231 0.00382991 0.00639745
0.00762282 0.00477515 0.00499874
0.00622478 0.00485021 0.00369169
0.00683639 0.00328838 0.00691379
0.00499121 0.00499241 0.00499975
0.00418047 0.00111805 0.00999903
0.00528108 0.00208013 0.00790395
0.00419034 -7.50827e-06 0.00831709
0.00201244 0.00200247 0.00803324
0.00428628 0.00253279 0.00999906
0.00695682 0.00644653 0.00694671
0.00641396 0.0061822 0.00518292
0.00226064 0.00218461 0.0051461
0 0.00143586 0.00417514
0.00159463 0.00346614 0.00403703
0.0068373 0.00319371 0.00316138
0.00774558 0.00221274 0.00506373
0 0.00270918 0.00154168
0.0041583 0.00142843 1.82688e-07
0.00500789 0.0021877 0.00219797
0.00396257 0.00352662 0.00160312
0.0013454 -6.04862e-07 0.00406002
0.0041834 -7.86539e-06 0.00168827
0.00262634 0.00695161 1.48307e-07
0.00193838 0.00805272 0.00194491
0.0040878 0.00624798 0.00164511
0.00800331 0.00798556 0.0079969
0.00796511 0.00481522 0.00802194
0.00838859 0.00607915 0.00594759
0.00999939 0.00882484 0.00419143
0.00757723 0.00763529 0.00496342
0.00856735 0.0099795 0.00416613
0.00797684 0.00797068 0.00201571
0.00353614 0.00303648 0.00695948
0.00443757 0.0036618 0.0083239
0.00389245 0.00160046 0.00596899
0.00500581 0.00766812 0.00767653
0.00198977 0.00800787 0.00798963
0.00282772 0.00999724 0.00712713
0.00391688 0.0083994 0.00595777
0 0.00695361 0.00262895
0.00164657 0.00623925 0.00408789
0 0.0040177 0.00850214
0.00231516 0.00498569 0.00766149
0.00143338 0.00417447 0.00999994
0.00717531 0.00711772 0.00999748
0.00611848 0.00597048 0.00841709
0.00205201 0.0079414 0.00474184
0.00304391 0.00694285 0.00646768
0.00158701 0.00607834 0.00592601
0.00998946 0.00578302 0.00831401
0 0.00718191 0.00711644
0.00158462 0.00577343 5.0106e-08
0 0.00577432 0.00158701
0.00999426 0.00715673 0.00711347
0.00286761 0.00334926 0.00999964
0.00997032 0.00140835 0.00417355
0.00803636 0.00194246 0.00197869
0.00838949 0.0035016 0.00399786
0.00372587 0.00164794 0.00412831
0.00150947 0.00999968 0.00581501
0.00280969 -3.61837e-06 0.00712769
0.00611004 0.0041712 0.00837558
0.00999318 0.00724877 0.00419374
0.00852867 -2.25927e-05 0.00416701
0.0033417 0.00286962 1.38383e-07
0.0027004 0.00153881 0.00999967
0.00281846 -4.00087e-06 0.00283203
0.00479813 0.00519393 0.00755406
0.00315826 0.00314623 0.00316735
0 0.00849157 0.00581511
0.00486492 0.00366938 0.00378612
0.00153706 0.00270865 3.96199e-08
0.00580018 0.0083157 0.00999806
0.00598532 0.00998905 0.0085046
0.00421445 0.00999395 0.00831716
0.00401819 0.00849821 0.00999881
0.00999876 0.00846616 0.00581246
0.00314759 0.00683349 0.00315087
0 0.00748929 0.00137438
0.00137345 0.00748898 2.10792e-08
0 0.00287343 0.00335182
0 0.00580816 0.00831736
0 0.00429792 0.00253898
0.00253358 0.00429588 1.61731e-07
0.001434 0.00581916 0.00999995
0.00517567 0.00646842 0.00639989
0.00360359 0.0065093 0.00823371
0.00693281 0.00261271 0.00999781
0.00799987 0.00193934 0.0080336
0.00694206 -1.68117e-05 0.00308163
0.00600087 0.00165223 0.00361257
0.00997548 0.00284678 0.00335045
0 0.00140616 0.00256446
0.00637369 0.00821643 0.00642001
0.0057966 0.00142309 3.12503e-07
0.00602212 0.00354076 0.00160309
0.00315737 0.00999643 0.00582508
0.00856277 0.00997968 0.00583122
0.00255399 0.00140298 1.73644e-07
0.00595006 -1.33708e-05 0.00149445
0.00628056 0.00827646 0.00361672
0.0085242 -2.24127e-05 0.0058318
0.00618692 0.00166033 0.00636447
0.0014024 0.00256406 0.01
0.00711118 0.00716744 -3.57186e-07
0.0051653 0.0076821 0.0021687
0.00593641 0.00608359 0.00160166
0 0.00686719 0.00578184
0.00996942 0.00137844 0.0025634
0.00177234 0.00360987 0.00640785
0.00999728 0.00846117 0.00262206
0.00840358 0.0061701 0.00413153
0.0059831 0.00998838 0.00149342
0.0069423 -1.65223e-05 0.00692528
0.00997114 0.00140816 0.00581746
0.00837968 0.00355355 0.00605923
0.00150194 -7.69963e-07 0.00581519
0 0.0013659 0.00748679
0.00136378 -6.45417e-07 0.00752891
0.00999235 0.00684194 0.00577928
0.00581523 0.00848098 -1.98547e-07
0 0.0075208 0.00859127
0.00136527 0.00748643 0.00999988
0.00423118 0.0082002 0.00362811
0.00859641 0.00997955 0.00750964
0.0100002 0.00860496 0.00752314
0.00575561 0.00157545 0.0099983
0.00724607 0.00417323 0.00999762
0 0.0057735 0.00666667
0.00137043 0.00999961 0.00752892
0 0.00863025 0.00752641
0.00855455 -2.30176e-05 0.00250686
0.00999119 0.00692804 0.0026274
0.00845046 0.00632258 0.00216201
0.00850081 0.00580463 0.00999697
0.00746625 0.00135663 0.00999746
0.00855773 -2.26284e-05 0.0075098
0.00997165 0.00133863 0.00748388
0 0.00143551 0.00581971
0.00595267 -1.2906e-05 0.00850452
0.00419334 -7.90771e-06 0.00339994
0.00792011 0.00468991 0.00203386
0.00998065 0.00427189 0.00253768
0.00423193 0.00999373 0.006666
0.00283675 0.00999729 0.00283189
0.00130704 -6.60567e-07 0.00241833
0 0.00727418 0.00419576
0.00998844 0.00574828 0.00666385
0.00697769 0.00998512 0.00308074
0.0075091 0.00862113 0.00999731
0 0.00574334 0.00336387
0 0.0043297 0.00416652
0.00686259 0.00577126 0.0099978
0.00997778 0.00299592 0.00691253
0.00420631 -7.69965e-06 0.00666635
0.00248069 0.00999765 0.00861131
0.00745938 0.00134754 6.10223e-08
0.00577092 0.00665745 0.00999811
0.00999637 0.00749572 0.00858772
0.00860619 0.00753405 0.00999684
0.00689488 0.00300718 1.66343e-07
0.00335888 0.0057404 2.35688e-07
0.00752583 0.00861378 -5.86415e-07
0.00751927 0.00998287 0.00138651
0.00577684 0.0068574 -1.20633e-07
0.00696816 0.00635723 0.00303273
0.00748248 -1.91713e-05 0.00138761
0.00288066 0.00499711 0.00999954
0.00432585 0.00582857 0.00999883
0.00432176 0.00416144 0.0099989
0.00752228 0.00998346 0.00861365
0.00246512 -3.05287e-06 0.0086115
0.00998665 0.00571781 0.00336226
0 0.00302218 0.00691532
0.00998242 0.00399209 0.00849881
0.00848257 0.00399711 -2.78655e-07
0.00997403 0.00268217 0.00154082
0 0.00244495 0.00857025
0.00244624 0.00856817 0.00999945
0.00748563 -1.86669e-05 0.00861354
0.00846664 0.00260337 0.00999698
0.00883616 0.00417279 0.0099968
0.00567575 0.00998968 0.0058324
0.0051851 0.00757573 0.00503182
0.00564752 0.00998962 0.00421455
0.00697784 0.00998546 0.00692493
0.00302096 0.0069133 0.0099993
0.00415712 0.00432458 3.08379e-07
0.00282152 -4.13265e-06 0.00440474
0.0031378 -4.61285e-06 0.0058255
0.00997964 0.00416907 0.00112426
0.00363801 0.00833315 0.00158824
0.00998155 0.00430382 0.00416476
0.00665668 0.00576068 -8.79534e-09
0.00859339 0.00997915 0.00250576
0 0.00848692 0.00262374
0.00135218 0.00999965 0.00405987
0 0.00885053 0.00419359
0.00419487 0.00884426 3.50992e-08
0.00420871 0.00999353 0.00168757
0.00498988 0.00478435 0.00237878
0.00720408 0.00450636 8.3438e-09
0.00561638 -1.22696e-05 0.00421535
0.00564467 -1.22026e-05 0.00583284
0.00131366 0.00999967 0.00241806
0.00854451 0.0024233 -1.80848e-07
0.00998379 0.00449621 0.00721662
0.00712045 0.00998483 0.00499892
0.00573045 0.00335407 0.00999834
0.00244567 -3.24138e-06 0.00135674
0.0099763 0.00241835 0.00856699
0.00239182 0.00478977 0.00499991
0.00581973 0.00431976 2.52817e-07
0.00830509 0.00578888 -4.82251e-07
0.00548499 0.00999043 0.00721937
0.00998233 0.00430441 0.00583093
0.00540736 0.00999022 0.0027751
0.00708447 -1.71156e-05 0.00499963
0.00283927 0.0099973 0.00440431
0 0.00452174 0.00721958
0.00452049 0.00721447 0.00999868
0.00545449 -1.14072e-05 0.00721935
0.00359804 0.00507044 0.00359648
0.00425651 0.00999366 0.00500777
0.00423021 -7.87938e-06 0.00500843
0.00366635 0.00521342 0.00617438
0 0.005744 0.00499998
0 0.00433013 0.00583333
0.00499247 0.00573706 2.34341e-07
0.00498036 0.00633227 0.00355356
0.00537677 -1.15995e-05 0.00277601
0.00998747 0.00571866 0.00499778
0.00368796 0.00640435 0.00484376
0.00573627 0.00499114 0.00999827
0.00998601 0.00574857 0.00158586
0 0.00666667 0
0.00858533 0.00750062 -8.08944e-07
0.00331629 -6.11065e-06 7.8953e-07
0 0.01 0.00666667
0.00500675 0.00999154 0.00999865
0 0.00288419 0.00499914
0.00999278 0.00746359 0.00137313
0.00998899 0.00664088 -1.13284e-06
0 0.005 0.01
0.00498317 0.00287571 2.49353e-07
0 0.005 0
0.00996429 -2.84481e-05 0.00333218
0.0100052 0.00997395 0.00666358
0.0041931 0.00726895 1.10653e-07
0.00997625 0.00285776 0.00499715
0.00497584 -1.0931e-05 7.57481e-07
0 0 0.00666667
0.0037905 0.00361264 0.00522619
0.00497901 -1.04116e-05 0.00999827
0.00996591 -2.81765e-05 0.00666409
0 0 0.005
0.00878395 0.00997821 0.00121891
0.00999786 0.00875383 0.00121868
0.00996507 -2.82654e-05 0.00499816
0.00998241 0.00497379 -8.94845e-07
0.00121556 0.00121925 -6.88926e-09
0 0.00122008 0.00122008
0 0.00333333 0.01
0 0.00666667 0.01
0.00877873 0.00875852 -1.03227e-06
0.0100036 0.00997359 0.00333124
0.00421945 0.00999362 0.00339933
0.00999367 0.0066417 0.00999626
0 0.00333333 0
0 0.00122008 0.00877992
0.00121501 -8.20894e-07 0.00877968
0.00121621 0.00121952 0.0100001
0.00878737 0.00997878 0.008777
0.0012201 0.00877945 0.00999987
0 0.00877992 0.00877992
0.0100015 0.00875455 0.00877634
0.00667134 0.00998575 -7.3495e-07
0.00996803 0.00119204 0.00121944
0.00122107 0.00999945 0.00878008
0.00878335 0.0087593 0.00999679
0.00998705 0.00497471 0.00999629
0 0 0.00333333
0.00663642 -1.62602e-05 6.34571e-07
0.00874494 -2.39883e-05 0.0012201
0.00120598 -8.61499e-07 0.00121208
0 0.00877992 0.00122008
0.00121995 0.0087794 9.86218e-08
0.0012123 0.00999951 0.00121141
0.00997164 0.00119264 0.00877646
0.00875376 0.00119729 0.00999675
0.00664053 -1.57581e-05 0.00999737
0.0087491 0.00119667 -1.09525e-07
0.00874854 -2.3465e-05 0.0087768
0.0099759 0.00330653 -6.99883e-07
0.00333833 0.00999552 0.00999952
0.00246176 0.00999784 0.00135631
0.00667501 0.00998645 0.00999796
0.00998048 0.00330744 0.00999629
0 0.01 0.005
0.00262393 0.0084846 1.50513e-07
0.0100044 0.00997378 0.00499749
0 0.01 0.00333333
0 0.00166667 0
0.00996352 -2.87006e-05 0.00166609
0 0.00166667 0.01
0 0.00833333 0
0.00999566 0.00830724 -1.35938e-06
0.00996673 -2.82374e-05 0.0083299
0.0100029 0.00997338 0.00166503
0.010006 0.00997399 0.00832986
0.00166907 0.00999851 0.00999988
0 0.01 0.00833333
0.00833733 0.00997971 -1.08178e-06
0.00829887 -2.25789e-05 2.01282e-07
0.00830346 -2.20352e-05 0.0099967
0.00834157 0.0099803 0.00999708
0 0 0.00833333
0.0100004 0.0083081 0.00999621
0.00165787 -2.12885e-06 2.50845e-07
0 0 0.00166667
0.00333733 0.00999567 3.12703e-09
0.00997396 0.00163939 0.00999623
0.00996932 0.00163873 -5.60016e-07
0.00165914 -1.74269e-06 0.00999997
0.00166855 0.0099988 5.72161e-08
0 0.01 0.00166667
0.0100069 0.00997402 0.00999628
0 0 0.01
0.0100023 0.0099732 -1.63971e-06
0.00996748 -2.83485e-05 0.00999595
0 0.01 0.01
0.00996279 -2.89065e-05 -3.03723e-07
0 0.01 0
0 0 0
0.00500456 0.00999104 -2.98268e-07
0.00331858 -5.50739e-06 0.00999901
0 0.00833333 0.01

CELLS 343 686
1 0
1 1
1 2
1 3
1 4
1 5
1 6
1 7
1 8
1 9
1 10
1 11
1 12
1 13
1 14
1 15
1 16
1 17
1 18
1 19
1 20
1 21
1 22
1 23
1 24
1 25
1 26
1 27
1 28
1 29
1 30
1 31
1 32
1 33
1 34
1 35
1 36
1 37
1 38
1 39
1 40
1 41
1 42
1 43
1 44
1 45
1 46
1 47
1 48
1 49
1 50
1 51
1 52
1 53
1 54
1 55
1 56
1 57
1 58
1 59
1 60
1 61
1 62
1 63
1 64
1 65
1 66
1 67
1 68
1 69
1 70
1 71
1 72
1 73
1 74
1 75
1 76
1 77
1 78
1 79
1 80
1 81
1 82
1 83
1 84
1 85
1 86
1 87
1 88
1 89
1 90
1 91
1 92
1 93
1 94
1 95
1 96
1 97
1 98
1 99
1 100
1 101
1 102
1 103
1 104
1 105
1 106
1 107
1 108
1 109
1 110
1 111
1 112
1 113
1 114
1 115
1 116
1 117
1 118
1 119
1 120
1 121
1 122
1 123
1 124
1 125
1 126
1 127
1 128
1 129
1 130
1 131
1 132
1 133
1 134
1 135
1 136
1 137
1 138
1 139
1 140
1 141
1 142
1 143
1 144
1 145
1 146
1 147
1 148
1 149
1 150
1 151
1 152
1 153
1 154
1 155
1 156
1 157
1 158
1 159
1 160
1 161
1 162
1 163
1 164
1 165
1 166
1 167
1 168
1 169
1 170
1 171
1 172
1 173
1 174
1 175
1 176
1 177
1 178
1 179
1 180
1 181
1 182
1 183
1 184
1 185
1 186
1 187
1 188
1 189
1 190
1 191
1 192
1 193
1 194
1 195
1 196
1 197
1 198
1 199
1 200
1 201
1 202
1 203
1 204
1 205
1 206
1 207
1 208
1 209
1 210
1 211
1 212
1 213
1 214
1 215
1 216
1 217
1 218
1 219
1 220
1 221
1 222
1 223
1 224
1 225
1 226
1 227
1 228
1 229
1 230
1 231
1 232
1 233
1 234
1 235
1 236
1 237
1 238
1 239
1 240
1 241
1 242
1 243
1 244
1 245
1 246
1 247
1 248
1 249
1 250
1 251
1 252
1 253
1 254
1 255
1 256
1 257
1 258
1 259
1 260
1 261
1 262
1 263
1 264
1 265
1 266
1 267
1 268
1 269
1 270
1 271
1 272
1 273
1 274
1 275
1 276
1 277
1 278
1 279
1 280
1 281
1 282
1 283
1 284
1 285
1 286
1 287
1 288
1 289
1 290
1 291
1 292
1 293
1 294
1 295
1 296
1 297
1 298
1 299
1 300
1 301
1 302
1 303
1 304
1 305
1 306
1 307
1 308
1 309
1 310
1 311
1 312
1 313
1 314
1 315
1 316
1 317
1 318
1 319
1 320
1 321
1 322
1 323
1 324
1 325
1 326
1 327
1 328
1 329
1 330
1 331
1 332
1 333
1 334
1 335
1 336
1 337
1 338
1 339
1 340
1 341
1 342

CELL_TYPES 343
1
1
1
1
1
1
1
1
1
1
1
1
1
1
1
1
1
1
1
1
1
1
1
1
1
1
1
1
1
1
1
1
1
1
1
1
1
1
1
1
1
1
1
1
1
1
1
1
1
1
1
1
1
1
1
1
1
1
1
1
1
1
1
1
1
1
1
1
1
1
1
1
1
1
1
1
1
1
1
1
1
1
1
1
1
1
1
1
1
1
1
1
1
1
1
1
1
1
1
1
1
1
1
1
1
1
1
1
1
1
1
1
1
1
1
1
1
1
1
1
1
1
1
1
1
1
1
1
1
1
1
1
1
1
1
1
1
1
1
1
1
1
1
1
1
1
1
1
1
1
1
1
1
1
1
1
1
1
1
1
1
1
1
1
1
1
1
1
1
1
1
1
1
1
1
1
1
1
1
1
1
1
1
1
1
1
1
1
1
1
1
1
1
1
1
1
1
1
1
1
1
1
1
1
1
1
1
1
1
1
1
1
1
1
1
1
1
1
1
1
1
1
1
1
1
1
1
1
1
1
1
1
1
1
1
1
1
1
1
1
1
1
1
1
1
1
1
1
1
1
1
1
1
1
1
1
1
1
1
1
1
1
1
1
1
1
1
1
1
1
1
1
1
1
1
1
1
1
1
1
1
1
1
1
1
1
1
1
1
1
1
1
1
1
1
1
1
1
1
1
1
1
1
1
1
1
1
1
1
1
1
1
1
1
1
1
1
1
1
1
1
1
1
1
1
1
1
1
1
1
1
1
1
1
1
1
1
1
1
1
1
1
1

POINT_DATA 343
FIELD FieldData 8

NodeID_(#) 1 343 int
0
1
2
3
4
5
6
7
8
9
10
11
12
13
14
15
16
17
18
19
20
21
22
23
24
25
26
27
28
29
30
31
32
33
34
35
36
37
38
39
40
41
42
43
44
45
46
47
48
49
50
51
52
53
54
55
56
57
58
59
60
61
62
63
64
65
66
67
68
69
70
71
72
73
74
75
76
77
78
79
80
81
82
83
84
85
86
87
88
89
90
91
92
93
94
95
96
97
98
99
100
101
102
103
104
105
106
107
108
109
110
111
112
113
114
115
116
117
118
119
120
121
122
123
124
125
126
127
128
129
130
131
132
133
134
135
136
137
138
139
140
141
142
143
144
145
146
147
148
149
150
151
152
153
154
155
156
157
158
159
160
161
162
163
164
165
166
167
168
169
170
171
172
173
174
175
176
177
178
179
180
181
182
183
184
185
186
187
188
189
190
191
192
193
194
195
196
197
198
199
200
201
202
203
204
205
206
207
208
209
210
211
212
213
214
215
216
217
218
219
220
221
222
223
224
225
226
227
228
229
230
231
232
233
234
235
236
237
238
239
240
241
242
243
244
245
246
247
248
249
250
251
252
253
254
255
256
257
258
259
260
261
262
263
264
265
266
267
268
269
270
271
272
273
274
275
276
277
278
279
280
281
282
283
284
285
286
287
288
289
290
291
292
293
294
295
296
297
298
299
300
301
302
303
304
305
306
307
308
309
310
311
312
313
314
315
316
317
318
319
320
321
322
323
324
325
326
327
328
329
330
331
332
333
334
335
336
337
338
339
340
341
342

Component_(#) 1 343 int
0
0
0
0
0
0
0
0
0
0
0
0
0
0
0
0
0
0
0
0
0
0
0
0
0
0
0
0
0
0
0
0
0
0
0
0
0
0
0
0
0
0
0
0
0
0
0
0
0
0
0
0
0
0
0
0
0
0
0
0
0
0
0
0
0
0
0
0
0
0
0
0
0
0
0
0
0
0
0
0
0
0
0
0
0
0
0
0
0
0
0
0
0
0
0
0
0
0
0
0
0
0
0
0
0
0
0
0
0
0
0
0
0
0
0
0
0
0
0
0
0
0
0
0
0
0
0
0
0
0
0
0
0
0
0
0
0
0
0
0
0
0
0
0
0
0
0
0
0
0
0
0
0
0
0
0
0
0
0
0
0
0
0
0
0
0
0
0
0
0
0
0
0
0
0
0
0
0
0
0
0
0
0
0
0
0
0
0
0
0
0
0
0
0
0
0
0
0
0
0
0
0
0
0
0
0
0
0
0
0
0
0
0
0
0
0
0
0
0
0
0
0
0
0
0
0
0
0
0
0
0
0
0
0
0
0
0
0
0
0
0
0
0
0
0
0
0
0
0
0
0
0
0
0
0
0
0
0
0
0
0
0
0
0
0
0
0
0
0
0
0
0
0
0
0
0
0
0
0
0
0
0
0
0
0
0
0
0
0
0
0
0
0
0
0
0
0
0
0
0
0
0
0
0
0
0
0
0
0
0
0
0
0
0
0
0
0
0
0
0
0
0
0
0
0
0
0
0
0
0
0
0
0
0
0
0
0
0
0
0
0
0
0

NodalMass_(kg) 1 343 double
3.15563e-06
1.41304e-05
2.20912e-06
1.71484e-05
8.42e-06
9.09306e-06
9.93033e-06
7.52198e-06
6.81096e-06
5.58223e-06
3.10888e-06
1.07575e-05
4.87011e-06
1.64955e-05
3.0246e-06
8.05984e-06
6.703e-06
1.0877e-05
4.18978e-06
8.16106e-06
6.14143e-06
1.17902e-05
2.23114e-06
4.25176e-06
1.09915e-05
7.41467e-06
4.21871e-06
3.92484e-06
3.08766e-06
1.31268e-05
7.72627e-06
1.65404e-05
1.19037e-05
7.29666e-06
3.81683e-06
1.11001e-05
3.81317e-06
1.39137e-05
6.37414e-06
8.00975e-06
7.6712e-06
1.18847e-05
1.6399e-05
2.78633e-06
8.93599e-06
2.58087e-06
7.57362e-06
4.23241e-06
1.31286e-05
3.80168e-06
2.7746e-06
7.16776e-06
1.21307e-05
5.11765e-06
8.19728e-06
4.58094e-06
2.79503e-06
3.26126e-06
4.12443e-06
2.11915e-06
3.35177e-06
3.61669e-06
1.56838e-05
7.33679e-06
8.24695e-06
5.00369e-06
2.82625e-06
7.20276e-06
3.26815e-06
4.18751e-06
2.02785e-06
2.42152e-06
3.11835e-06
5.97459e-06
5.87101e-06
4.09374e-06
5.45463e-06
2.28825e-06
4.49759e-06
4.38192e-06
4.50892e-06
4.39234e-06
4.27273e-06
5.32031e-06
1.53201e-06
2.38869e-06
2.02885e-06
4.38798e-06
3.17972e-06
3.14298e-06
4.61567e-06
5.87645e-06
8.18088e-06
2.48341e-06
1.53815e-05
3.49683e-06
7.35227e-06
2.01314e-06
2.0408e-06
7.98183e-06
4.41293e-06
7.1389e-06
1.20123e-06
5.03343e-06
1.61257e-06
4.12601e-06
8.73748e-06
4.37849e-06
7.97173e-06
2.13557e-06
3.38137e-06
9.48623e-06
7.40262e-06
1.80226e-06
2.10222e-06
7.98889e-06
1.87983e-06
7.44814e-06
4.19782e-06
2.37156e-06
4.31705e-06
6.06441e-06
4.30905e-06
2.16843e-06
1.8986e-06
1.81294e-06
3.89762e-06
2.44299e-06
1.65628e-06
8.01374e-06
1.64513e-06
2.3931e-06
3.01363e-06
2.99431e-06
1.36541e-06
1.87293e-06
2.09622e-06
1.94762e-06
1.87618e-06
6.37913e-06
4.58628e-06
2.02767e-06
1.61999e-06
2.41284e-06
3.8865e-06
4.44973e-06
2.29839e-06
1.17349e-05
3.11811e-06
1.354e-06
3.45063e-06
1.81846e-06
2.9382e-06
1.37381e-06
2.41464e-06
2.10451e-06
2.63927e-06
2.14166e-06
1.7943e-06
3.19976e-06
1.36989e-06
2.43489e-06
2.08158e-06
1.3601e-06
2.17203e-06
1.89924e-06
3.16996e-06
2.6119e-06
2.37677e-06
1.60225e-06
1.90684e-06
5.49206e-06
1.87878e-06
3.14313e-06
2.97301e-06
1.18454e-06
1.89263e-06
2.04166e-06
2.73572e-06
2.42405e-06
3.23083e-06
3.19752e-06
3.2142e-06
1.94492e-06
1.61196e-06
1.86876e-06
3.22435e-06
2.1114e-06
2.96917e-06
6.15288e-06
2.3097e-06
2.39729e-06
2.38029e-06
2.64508e-06
1.66557e-06
1.82377e-06
2.06583e-06
5.73271e-06
2.08467e-06
2.18324e-06
2.43522e-06
3.1188e-06
3.17316e-06
2.05447e-06
1.9592e-06
3.05718e-06
6.44327e-06
2.08796e-06
2.72615e-06
2.15709e-06
1.86812e-06
2.0028e-06
2.10999e-06
2.88994e-06
2.3222e-06
2.3979e-06
1.97629e-06
6.4127e-06
2.16225e-06
3.29198e-06
2.10223e-06
2.66566e-06
1.94415e-06
2.91865e-06
2.58116e-06
2.11703e-06
2.09534e-06
1.91719e-06
7.06046e-06
2.25203e-06
2.06378e-06
6.28159e-06
2.12147e-06
2.90924e-06
2.12921e-06
6.4487e-06
1.41701e-06
2.0682e-06
6.58062e-06
2.52584e-06
2.39732e-06
7.42191e-07
2.22368e-06
7.06751e-07
7.00657e-07
8.93749e-07
2.53536e-06
2.26535e-06
1.33607e-06
7.84725e-07
2.32303e-06
6.06694e-07
6.68276e-07
6.84307e-07
2.51242e-06
2.31629e-06
7.8367e-07
6.80839e-07
6.22692e-06
6.7471e-07
6.65305e-07
7.01158e-07
1.8232e-06
1.90695e-06
6.86722e-07
7.04792e-07
1.86445e-06
2.28572e-06
6.8045e-07
7.16005e-07
1.82373e-06
6.01079e-07
2.02791e-06
7.4579e-07
5.74423e-07
1.80052e-06
1.454e-06
2.2702e-06
1.80636e-06
2.15356e-06
1.79089e-06
1.79456e-06
6.8231e-07
2.24737e-06
1.45239e-06
1.79556e-06
6.97875e-07
6.24265e-07
6.62717e-07
1.44627e-06
1.40138e-06
2.15258e-06
1.82851e-06
1.3994e-06
1.43932e-06
2.19226e-06
6.97732e-07
1.77726e-06
1.79162e-06
6.54258e-07
7.3397e-07
2.34895e-06
7.10392e-07
6.56982e-07
6.26314e-07
2.18926e-06
6.12493e-07
6.03901e-07
5.92831e-07
5.12031e-07
5.11667e-07
4.9467e-07
4.97016e-07
4.96269e-07
5.33079e-07
4.94191e-07
4.97855e-07
4.86862e-07
4.90626e-07
4.94649e-07
4.94954e-07
4.91922e-07
4.89615e-07
4.96354e-07
4.95189e-07
4.82188e-07
1.10854e-06
5.3299e-07
5.44763e-07
5.36655e-07
5.15417e-07
5.01772e-07
5.53774e-07
5.53774e-07
5.53774e-07
5.53774e-07
5.53774e-07
5.53774e-07
5.50785e-07
5.50785e-07
7.45291e-07
7.11668e-07
4.9897e-07

NodalForce_(N) 3 343 double
9.51775e-08 -9.86028e-09 4.39568e-09
6.86727e-07 -1.55423e-07 1.6263e-07
0.000328035 0.000378115 0.000426868
1.38314e-07 -2.05054e-07 1.54222e-07
-9.08958e-07 -9.67849e-07 7.91187e-07
-9.73575e-07 -8.72543e-07 9.16673e-07
-5.79e-09 -2.13706e-06 2.23822e-06
5.44083e-07 -1.04675e-06 1.09606e-06
-1.25483e-06 -1.2781e-06 1.27324e-06
3.2689e-08 -4.58133e-07 4.85948e-07
-9.02714e-07 -3.01599e-07 2.72585e-07
-2.68446e-06 -1.38973e-06 1.28275e-06
-1.35763e-06 -5.16929e-07 3.8543e-07
-1.05574e-06 -1.80139e-07 2.0821e-07
-7.45657e-07 -2.43286e-07 2.8267e-07
-1.53104e-07 -1.35101e-06 1.55408e-06
4.15912e-07 -9.48525e-07 1.03658e-06
-3.39569e-07 -1.63809e-07 1.60928e-07
-0.00126895 0.000669735 -0.000138004
2.03606e-08 -3.06081e-08 3.2046e-08
1.03856e-07 -1.17273e-06 1.11009e-06
-1.77519e-06 -3.00853e-06 2.7693e-06
-0.000513341 -0.00158952 -0.000808286
2.53838e-07 -4.1076e-07 3.25831e-07
5.45157e-08 -1.31315e-06 1.22893e-06
5.86407e-07 -4.23697e-07 5.45272e-07
-1.41908e-07 -1.9018e-08 2.56418e-08
-2.30354e-07 -3.88641e-07 3.21566e-07
4.73584e-07 -5.05629e-08 8.7321e-08
9.69151e-07 -6.56733e-08 1.41889e-07
1.21901e-06 -3.25034e-07 5.87133e-07
1.8927e-07 -3.83016e-06 4.32562e-06
-2.12214e-06 -2.78728e-06 3.07201e-06
1.83923e-07 -1.85403e-06 2.00335e-06
1.19547e-06 -1.36064e-06 1.40777e-06
1.90458e-06 -2.29774e-06 2.44224e-06
1.41182e-06 -1.05892e-06 1.06652e-06
5.19533e-06 -3.20842e-06 3.51669e-06
-5.65769e-07 -2.79149e-07 2.84321e-07
-1.2648e-06 -5.39599e-07 7.3223e-07
-1.01867e-06 -5.70034e-07 3.7109e-07
3.67043e-08 -1.05434e-06 1.28781e-06
-5.05687e-08 -1.7351e-07 1.68373e-07
2.03223e-07 -8.30268e-08 6.39942e-08
7.39475e-07 -4.9354e-07 4.4941e-07
0.000915382 0.000723932 -0.000380182
1.85853e-07 -5.6879e-08 5.29954e-08
-0.000168328 0.000998665 4.63127e-05
-3.2892e-07 -1.46075e-07 2.09737e-07
-1.46729e-07 -1.9883e-08 1.60636e-08
-3.77862e-07 -5.14295e-07 6.20557e-07
-7.79386e-07 -9.21676e-07 1.18115e-06
4.47852e-07 -6.47794e-08 1.25419e-07
7.75094e-08 -1.04554e-07 1.41878e-07
1.39401e-08 -4.31986e-08 5.75395e-08
-5.87009e-07 -1.63132e-06 1.74289e-06
0.000755138 0.000589479 0.000672421
2.11279e-07 -2.1736e-08 2.05873e-08
-0.00010919 -2.17517e-05 -0.000330215
6.14483e-08 -7.46771e-07 8.03201e-07
-4.84164e-07 -9.66519e-08 1.44075e-07
-5.33532e-07 -1.45564e-06 1.34367e-06
2.4943e-07 -4.33764e-06 4.00913e-06
-7.75208e-08 -2.0168e-06 2.00135e-06
-6.64349e-07 -5.68294e-07 3.60288e-07
1.9019e-07 -1.16849e-08 2.30286e-08
-4.43222e-07 -1.38319e-07 7.41761e-08
-1.41922e-06 -9.83934e-07 1.17895e-06
7.10677e-07 -1.14882e-06 1.20709e-06
-9.90256e-07 -1.36702e-06 1.18664e-06
2.18191e-07 -8.32393e-08 9.64246e-08
-4.36013e-07 -9.09583e-08 9.52513e-08
-2.69533e-07 -1.52173e-07 7.96255e-08
-5.42264e-07 -4.2765e-07 5.87088e-07
1.91163e-08 -1.84542e-07 1.76664e-07
0.00137549 0.000553883 0.000337653
1.15983e-08 -4.71979e-07 4.71832e-07
8.03689e-08 -8.92781e-09 1.07125e-08
-3.4987e-07 -5.82469e-07 7.01297e-07
3.2283e-07 -6.23369e-07 7.24011e-07
2.1981e-07 -3.25702e-07 3.76695e-07
-2.49877e-07 -2.99567e-07 3.43076e-07
8.05585e-07 -1.51065e-06 1.5932e-06
4.13699e-07 -1.15365e-07 1.66319e-07
3.4028e-05 -0.00107512 0.000368281
1.55136e-07 2.00055e-09 4.24752e-09
0.000100936 -0.000666019 0.000410558
-0.000697162 -0.000319821 7.23842e-05
-0.000275513 0.000245737 -0.000164796
3.54616e-07 -5.91772e-08 8.19737e-08
-1.63176e-07 -1.46411e-08 2.143e-08
5.16567e-08 -5.07094e-07 5.98451e-07
-4.47302e-07 -2.47352e-07 4.71722e-07
-9.34077e-07 -5.10645e-07 5.2733e-07
-5.35331e-06 -4.21686e-06 3.96185e-06
-5.2952e-07 -8.19046e-07 6.6957e-07
-6.20806e-07 -1.23533e-06 1.03224e-06
-1.39781e-08 -7.71259e-07 7.49798e-07
-6.93599e-05 9.18545e-05 -1.21396e-05
7.40494e-07 -1.19686e-06 1.24265e-06
3.07581e-07 -7.39016e-07 6.54096e-07
7.10726e-07 -1.05258e-06 1.12548e-06
1.26261e-07 -5.22059e-08 4.09427e-08
1.33216e-06 -1.40125e-06 1.41865e-06
7.4109e-08 -6.26492e-08 4.74834e-08
-2.90388e-07 -7.49227e-07 6.58643e-07
2.13193e-06 -1.27844e-06 1.32007e-06
-1.47845e-06 -1.42394e-06 1.23636e-06
-1.82664e-06 -1.39896e-06 1.17599e-06
-1.08423e-07 -3.96288e-09 9.31443e-09
1.37669e-06 -6.13832e-07 7.34299e-07
2.35685e-06 -8.95228e-07 1.05884e-06
1.73249e-06 -8.62573e-07 1.13332e-06
-0.000699093 -0.000354578 -0.000759331
-1.0681e-07 -8.49187e-07 7.83122e-07
-1.70281e-07 -5.56545e-08 7.57593e-08
7.30918e-07 -6.68574e-07 7.03395e-07
1.06584e-06 -1.91133e-06 2.0196e-06
1.77664e-06 -6.22068e-07 6.54082e-07
-8.73175e-07 -5.63921e-07 4.45944e-07
-1.07996e-06 -1.73509e-06 1.60679e-06
-8.34153e-07 -1.65506e-06 1.67247e-06
-2.08063e-07 -3.43581e-08 2.23587e-08
0.000227652 0.000188324 0.000110017
-1.03562e-07 -1.73592e-08 2.58003e-09
1.67857e-07 -6.3656e-07 6.75311e-07
1.63703e-06 -4.92721e-07 6.00931e-07
-0.000106423 -0.00073614 -0.000403885
-4.34412e-08 -9.14257e-09 1.07318e-08
1.28552e-06 -5.11428e-07 4.55593e-07
2.66577e-07 -4.63791e-07 4.82802e-07
2.19342e-07 -8.42369e-07 9.08421e-07
-1.16634e-06 -4.80029e-07 4.66262e-07
-9.10278e-07 -5.93242e-07 6.8431e-07
0.000516936 -0.00113216 -0.000119553
3.60227e-08 -2.96258e-09 6.93397e-09
7.18979e-05 3.10192e-05 -0.000243714
-2.65808e-07 -6.46599e-07 5.61081e-07
5.52035e-07 -6.57088e-07 6.98493e-07
1.74917e-06 -1.65399e-06 1.77467e-06
-1.05565e-06 -1.20779e-06 1.3534e-06
-9.34017e-07 -5.16278e-07 4.87032e-07
-7.13047e-07 -5.39081e-07 4.60203e-07
-8.62369e-07 -9.76337e-07 9.0568e-07
-0.00103675 0.000280001 0.000103406
-1.80513e-06 -8.23887e-07 6.79451e-07
-2.97502e-07 -2.39467e-07 1.49359e-07
2.05799e-06 -2.80834e-06 2.90494e-06
4.11796e-07 -1.15338e-06 1.15265e-06
1.60861e-07 -1.03632e-07 8.8381e-08
5.4412e-07 -1.11268e-07 8.58958e-08
-3.38503e-08 -7.52492e-09 5.31167e-09
-0.000243837 -0.000701369 -8.32858e-05
-4.41645e-08 -4.89589e-07 5.13835e-07
9.29258e-07 -4.73647e-07 4.58841e-07
-1.28411e-07 -4.55357e-07 5.15688e-07
0.000516782 -0.000822125 0.000260335
-0.00147229 0.000122214 0.000495215
-3.73936e-07 -3.01041e-07 3.79214e-07
-7.05276e-07 -1.21173e-06 1.19823e-06
-3.22046e-07 -1.47422e-07 8.61089e-08
6.87974e-08 -5.9218e-08 6.44829e-08
1.70724e-07 -5.32716e-07 4.87751e-07
-2.00874e-07 -1.56385e-07 2.14978e-07
-8.64748e-08 -7.64503e-07 8.25026e-07
-2.42536e-07 -5.10517e-07 5.73805e-07
5.19935e-07 -6.32076e-07 6.54032e-07
4.62689e-07 -6.5759e-08 1.36244e-07
1.19175e-06 -5.0111e-07 5.75403e-07
7.96505e-07 -3.62007e-07 3.77204e-07
6.46729e-07 -2.19545e-07 2.92244e-07
1.10736e-06 -9.38276e-07 1.04691e-06
-1.27462e-07 -5.08453e-07 4.40822e-07
-3.50711e-07 -7.62527e-08 1.41443e-07
-4.68737e-07 -1.62241e-07 2.88446e-07
-2.3752e-07 -7.38809e-08 1.17474e-07
1.58131e-07 -4.23369e-07 4.61131e-07
-3.34715e-07 -9.31802e-08 4.80953e-08
4.71654e-07 -9.82713e-07 1.01042e-06
0.000273503 -0.000731201 -0.000608124
-8.21246e-07 -1.18511e-06 1.22646e-06
8.20557e-07 -9.0323e-07 9.30331e-07
3.02099e-07 -1.24619e-06 1.19055e-06
0.000285942 -0.000802842 0.000394367
-7.07588e-08 -4.40353e-08 5.33713e-08
-8.83538e-07 -5.14029e-07 4.30464e-07
-1.37465e-06 -9.39508e-07 9.41454e-07
-7.06566e-07 -6.23155e-07 6.61277e-07
5.42262e-07 -3.9711e-07 3.51474e-07
6.72219e-07 -5.78103e-07 5.84534e-07
6.10545e-07 -3.09611e-07 2.67982e-07
4.00875e-07 -4.64065e-07 4.5542e-07
-2.01852e-07 -3.9768e-08 1.17052e-07
4.59437e-07 -1.46925e-07 2.26468e-07
-1.7948e-07 -8.94522e-08 4.22324e-08
-2.7582e-07 -1.12101e-07 5.77364e-08
4.3552e-07 -7.69291e-07 7.69428e-07
1.13527e-06 -2.80785e-07 3.57712e-07
7.04241e-08 -7.65456e-07 7.76963e-07
6.85456e-07 -3.46467e-07 4.25848e-07
1.15208e-06 -6.8511e-07 6.96534e-07
0.000297859 -0.00040171 0.000218745
1.28399e-07 -1.31888e-08 1.16242e-08
-6.48936e-06 0.000466036 0.000123224
6.22857e-07 -1.39734e-07 1.74082e-07
9.05528e-07 -2.492e-07 2.39405e-07
7.03715e-07 -5.11688e-07 6.59662e-07
5.35034e-07 -4.20206e-07 4.63585e-07
-4.99237e-07 -4.60939e-07 3.22948e-07
-5.73067e-07 -3.67982e-07 2.51785e-07
1.04944e-07 -7.88311e-09 1.53819e-09
3.2337e-07 -6.05579e-07 5.87511e-07
-3.05533e-07 -7.67521e-07 7.93499e-07
8.1612e-07 -5.82541e-07 5.62237e-07
-6.87621e-07 -3.03081e-07 3.60709e-07
-9.60306e-08 -8.45491e-08 5.61028e-08
-7.05423e-07 -7.71641e-07 7.51082e-07
4.36625e-08 -9.00553e-08 1.18928e-07
4.52151e-07 -2.78521e-07 3.43193e-07
1.19764e-06 -8.31293e-07 9.33997e-07
2.55858e-07 -2.57892e-07 2.59833e-07
-1.90828e-07 -9.75491e-07 9.97781e-07
6.31823e-07 -2.41277e-07 2.18545e-07
-7.63584e-07 -7.05388e-07 5.72527e-07
3.2829e-07 -8.10932e-08 5.45303e-08
-0.000744462 -0.00015633 0.000221286
-2.26137e-07 -1.41557e-07 2.12525e-07
-6.10965e-07 -3.07432e-07 2.21262e-07
3.05413e-07 -2.52336e-07 2.77671e-07
4.08891e-07 -1.79262e-07 1.34846e-07
-3.80274e-07 -2.226e-07 1.2132e-07
-1.00936e-07 -2.23661e-07 2.80715e-07
0.000738435 -0.000811266 1.14656e-07
-0.000216445 -5.13818e-05 0.000210282
5.38794e-07 -1.55158e-07 2.60879e-07
7.84703e-07 -5.01984e-07 5.78213e-07
-1.68352e-07 -2.21856e-07 1.70544e-07
1.44174e-07 -7.39296e-07 7.70077e-07
3.06995e-07 -2.25662e-07 2.60156e-07
-5.55787e-07 -2.8181e-07 3.98427e-07
6.78312e-07 -8.62559e-07 8.90676e-07
0.000360889 -5.61969e-06 0.000272434
1.05182e-06 -5.92902e-07 6.63871e-07
3.21533e-09 -5.95121e-08 4.5401e-08
0.000584697 -0.00051424 -6.0517e-06
-1.53461e-08 -9.97462e-08 1.15479e-07
0.000996087 -0.000265383 -0.000217438
9.14948e-07 -7.91526e-07 8.46794e-07
5.7889e-07 -4.7403e-07 5.0961e-07
8.91949e-05 -0.000336947 3.45551e-05
2.94057e-07 -2.46337e-07 2.67827e-07
-0.000268618 -0.000301953 -0.000262338
-1.2655e-07 -2.82247e-07 2.48975e-07
1.56014e-07 -2.5012e-07 2.56087e-07
6.63502e-07 -1.36632e-07 2.22175e-07
-2.58103e-07 -8.80501e-07 8.65794e-07
5.60005e-09 -1.17705e-07 9.70944e-08
-0.00070986 -0.000753935 -9.23691e-05
-2.36901e-07 -2.85723e-07 2.73342e-07
-2.67271e-07 -9.72263e-08 8.09646e-08
-2.62112e-07 -2.79305e-07 2.46464e-07
-0.000598034 -0.000552979 -2.71489e-05
1.00812e-06 -5.3228e-07 5.56186e-07
9.40075e-07 -6.80525e-07 7.15842e-07
-2.00834e-07 -2.88105e-07 2.55334e-07
2.3022e-07 -2.56507e-07 2.68161e-07
2.70957e-08 -1.84801e-08 4.7179e-09
0.000174494 0.000690899 -0.000287872
-0.00012196 0.000114853 9.37662e-05
4.11518e-05 -0.000245408 5.64856e-05
1.00331e-06 -5.13599e-07 5.6314e-07
2.62474e-07 -2.19339e-07 2.22516e-07
4.77744e-07 -1.63887e-07 1.17048e-07
-1.34087e-07 -2.62574e-07 2.89772e-07
6.75202e-06 -0.000177058 8.63847e-05
8.10367e-05 0.000560658 0.000161252
-8.28636e-08 -1.73771e-08 4.87512e-09
-1.12029e-07 -1.32409e-08 1.01612e-08
1.59239e-07 -5.33771e-07 5.72554e-07
-3.0683e-08 -1.37964e-08 1.05647e-08
1.65198e-05 0.000443536 -0.000157282