# vtk DataFile Version 4.2
vtk output
ASCII
DATASET UNSTRUCTURED_GRID

POINTS 343 double
0.00112276 0.00419486 1.0824e-07
0.00217156 0.00498232 0.00217547
0 0.00419538 0.00112517
0.00192991 0.00195425 0.00194225
0.00516763 0.00240495 0.00503309
0.00517075 0.00382842 0.00639842
0.00762244 0.00477178 0.00500097
0.00622522 0.00484803 0.00369311
0.00683376 0.00328546 0.00691564
0.00499106 0.00499112 0.00500059
0.00417671 0.00111655 0.00999992
0.00527766 0.00207814 0.00790512
0.00418644 -9.13994e-06 0.00831785
0.00201157 0.0020023 0.00803338
0.00428322 0.00253156 0.01
0.0069568 0.00644391 0.0069486
0.00641468 0.00617998 0.00518441
0.00226005 0.00218437 0.00514623
0 0.00143586 0.00417514
0.00159452 0.00346607 0.00403706
0.00683666 0.00319073 0.00316318
0.00774287 0.00220878 0.00506606
0 0.00270918 0.00154168
0.00415804 0.00142691 9.87694e-07
0.00500705 0.00218584 0.00219913
0.00396297 0.00352573 0.00160388
0.00134476 -6.86239e-07 0.00406008
0.00418164 -9.45016e-06 0.00168913
0.00262793 0.00695134 4.53987e-07
0.0019392 0.00805263 0.00194502
0.00408941 0.0062473 0.00164589
0.00800409 0.00798196 0.00799949
0.00796294 0.00481157 0.0080245
0.00838889 0.00607518 0.0059503
0.0100035 0.00881926 0.00419509
0.00757953 0.00763205 0.00496557
0.00857244 0.00997513 0.00416888
0.0079813 0.00796706 0.00201823
0.00353486 0.00303579 0.0069599
0.00443557 0.00366076 0.00832481
0.00389035 0.0015993 0.00596945
0.00500624 0.00766674 0.00767759
0.00198986 0.00800771 0.00798971
0.00282896 0.00999676 0.00712732
0.00391812 0.00839854 0.00595822
0 0.00695361 0.00262895
0.00164681 0.00623913 0.00408796
0 0.0040177 0.00850214
0.00231488 0.00498551 0.00766163
0.00143296 0.00417438 0.00999999
0.00717433 0.00711484 0.00999972
0.00611742 0.00596848 0.00841872
0.00205246 0.0079413 0.00474193
0.00304415 0.00694252 0.00646793
0.00158703 0.00607826 0.00592607
0.00998809 0.00577747 0.00831782
0 0.00718191 0.00711644
0.00158524 0.00577332 1.19622e-07
0 0.00577432 0.00158701
0.00999496 0.00715123 0.00711725
0.00286595 0.00334881 0.0100001
0.00996728 0.00140208 0.00417728
0.00803522 0.00193815 0.00198128
0.00838859 0.00349731 0.00400058
0.00372431 0.00164686 0.00412873
0.00151004 0.00999964 0.00581505
0.00280733 -4.3774e-06 0.00712794
0.00610761 0.00416908 0.0083772
0.00999583 0.00724326 0.00419742
0.00852431 -2.76791e-05 0.00416986
0.00334237 0.00286896 6.38216e-07
0.00269816 0.00153823 0.0100001
0.00281675 -4.78516e-06 0.00283228
0.00479705 0.00519281 0.00755501
0.00315794 0.00314574 0.00316764
0 0.00849157 0.00581511
0.00486443 0.00366802 0.00378697
0.00153724 0.00270859 8.87802e-08
0.00580001 0.00831371 0.00999962
0.00598713 0.00998682 0.00850623
0.00421566 0.00999281 0.00831797
0.00401806 0.00849716 0.00999958
0.0100015 0.00846063 0.00581617
0.00314841 0.00683313 0.00315117
0 0.00748929 0.00137438
0.00137414 0.00748898 4.15072e-08
0 0.00287343 0.00335182
0 0.00580816 0.00831736
0 0.00429792 0.00253898
0.00253457 0.00429558 4.40911e-07
0.00143366 0.00581911 0.01
0.00517589 0.00646706 0.00640087
0.00360312 0.00650883 0.00823427
0.00692805 0.00260954 0.00999996
0.00799505 0.0019351 0.00803616
0.00693877 -2.04785e-05 0.00308357
0.00599887 0.00164961 0.00361397
0.00997436 0.0028408 0.0033542
0 0.00140616 0.00256446
0.00637525 0.00821409 0.00642151
0.00579609 0.00142047 1.86238e-06
0.00602244 0.00353846 0.00160471
0.00315896 0.00999575 0.0058254
0.00856678 0.00997532 0.00583399
0.00255395 0.00140236 4.87029e-07
0.00594774 -1.62273e-05 0.00149611
0.00628365 0.00827416 0.0036182
0.00851882 -2.74694e-05 0.00583462
0.00618345 0.00165761 0.00636591
0.00140178 0.00256402 0.01
0.00711569 0.00716457 1.87264e-06
0.0051682 0.00768061 0.00216981
0.00593882 0.00608175 0.00160322
0 0.00686719 0.00578184
0.00996735 0.00137214 0.00256717
0.00177202 0.00360977 0.00640794
0.0100021 0.00845559 0.0026258
0.00840511 0.00616608 0.00413422
0.00598842 0.00998605 0.00149497
0.00693683 -2.02072e-05 0.00692713
0.00996706 0.00140192 0.00582119
0.00837749 0.0035493 0.00606197
0.00150116 -8.97732e-07 0.00581524
0 0.0013659 0.00748679
0.00136299 -7.78821e-07 0.00752891
0.00999358 0.00683644 0.00578299
0.00582013 0.00847897 1.39189e-06
0 0.0075208 0.00859127
0.00136507 0.00748636 0.00999994
0.00423318 0.00819919 0.00362864
0.00859938 0.00997514 0.00751254
0.010002 0.00859945 0.00752692
0.00575061 0.00157298 0.00999987
0.00724247 0.00417016 0.00999992
0 0.0057735 0.00666667
0.0013708 0.00999957 0.00752896
0 0.00863025 0.00752641
0.00855119 -2.81994e-05 0.0025098
0.00999451 0.00692253 0.00263113
0.00845337 0.0063185 0.00216479
0.00849843 0.00580054 0.00999993
0.00746021 0.00135269 0.00999988
0.0085513 -2.77866e-05 0.00751261
0.00996645 0.00133236 0.00748764
0 0.00143551 0.00581971
0.00594701 -1.57614e-05 0.00850602
0.00419081 -9.55243e-06 0.0034006
0.00792148 0.00468616 0.00203634
0.00998141 0.00426611 0.0025414
0.0042339 0.00999252 0.00666661
0.00283881 0.00999679 0.00283212
0.00130656 -7.44657e-07 0.00241837
0 0.00727418 0.00419576
0.00998803 0.00574272 0.00666758
0.00698277 0.00998204 0.0030826
0.0075093 0.00861778 0.00999977
0 0.00574334 0.00336387
0 0.0043297 0.00416652
0.00686047 0.00576866 0.00999993
0.00997453 0.00299003 0.00691627
0.00420277 -9.36401e-06 0.00666695
0.00248143 0.00999725 0.00861156
0.00745878 0.00134353 2.48619e-06
0.00576963 0.00665567 0.00999969
0.00999648 0.00749023 0.00859151
0.00860543 0.00752988 0.00999987
0.00689563 0.00300405 2.31174e-06
0.00336062 0.00573998 7.94445e-07
0.00753174 0.00861045 1.88884e-06
0.00752554 0.00997931 0.00138887
0.00578051 0.00685558 1.46452e-06
0.00697036 0.00635454 0.00303462
0.00747995 -2.34134e-05 0.00139002
0.00287949 0.00499676 0.01
0.00432423 0.00582773 0.00999981
0.00431944 0.00416049 0.00999991
0.00752436 0.00997996 0.00861608
0.00246283 -3.74121e-06 0.00861174
0.00998831 0.0057122 0.00336596
0 0.00302218 0.00691532
0.00997916 0.00398638 0.00850262
0.00848453 0.00399268 2.71741e-06
0.00997388 0.00267612 0.00154456
0 0.00244495 0.00857025
0.00244604 0.00856776 0.00999977
0.00747903 -2.29125e-05 0.00861582
0.00846121 0.00259886 0.00999992
0.00883216 0.00416821 0.00999995
0.00567855 0.00998758 0.00583351
0.00518656 0.00757426 0.00503272
0.00565115 0.00998752 0.00421565
0.00698071 0.00998243 0.00692676
0.00302022 0.00691303 0.00999979
0.00415859 0.0043237 1.21918e-06
0.00281964 -4.97442e-06 0.00440499
0.00313539 -5.57219e-06 0.00582582
0.00998117 0.00416325 0.00112804
0.00364032 0.00833236 0.00158888
0.00998133 0.00429809 0.0041685
0.0066598 0.00575817 2.01472e-06
0.00859953 0.00997472 0.00250859
0 0.00848692 0.00262374
0.00135271 0.00999959 0.00405989
0 0.00885053 0.00419359
0.00419858 0.00884312 9.64618e-07
0.00421244 0.00999225 0.00168835
0.00499071 0.00478309 0.00237981
0.00720622 0.0045032 2.30821e-06
0.00561304 -1.49124e-05 0.00421654
0.0056405 -1.48566e-05 0.00583397
0.00131435 0.00999961 0.00241806
0.00854498 0.00241857 2.84401e-06
0.00998181 0.00449054 0.00722038
0.00712452 0.00998167 0.0050008
0.00572685 0.00335206 0.00999992
0.00244453 -3.83217e-06 0.001357
0.00997146 0.0024123 0.00857082
0.0023918 0.00478954 0.00500008
0.00582139 0.00431774 1.91561e-06
0.00830873 0.00578489 2.43203e-06
0.00548718 0.00998851 0.00722057
0.00998103 0.0042987 0.00583467
0.00541158 0.00998827 0.00277618
0.00708005 -2.08843e-05 0.00500159
0.00284103 0.0099968 0.00440449
0 0.00452174 0.00721958
0.00451967 0.00721343 0.0099997
0.00544984 -1.38928e-05 0.00722047
0.00359832 0.00506987 0.00359685
0.00425912 0.00999242 0.00500833
0.00422713 -9.56245e-06 0.00500901
0.00366608 0.00521285 0.0061748
0 0.005744 0.00499998
0 0.00433013 0.00583333
0.00499497 0.00573589 1.52632e-06
0.00498166 0.00633105 0.00355443
0.0053741 -1.40626e-05 0.00277724
0.00998809 0.00571308 0.0050015
0.00368847 0.0064038 0.00484413
0.00573385 0.00498941 0.00999986
0.00998881 0.00574294 0.00158961
0 0.00666667 0
0.00859065 0.00749642 2.23971e-06
0.0033154 -7.42323e-06 1.51697e-06
0 0.01 0.00666667
0.00500743 0.0099898 0.00999997
0 0.00288419 0.00499914
0.0099974 0.00745809 0.0013769
0.00999362 0.0066353 2.76506e-06
0 0.005 0.01
0.00498372 0.00287404 1.45724e-06
0 0.005 0
0.00996033 -3.50218e-05 0.00333595
0.0100089 0.00996822 0.00666729
0.00419597 0.00726807 1.04161e-06
0.00997405 0.00285183 0.0050009
0.00497454 -1.32863e-05 2.09874e-06
0 0 0.00666667
0.00378976 0.00361192 0.0052266
0.00497372 -1.26483e-05 0.00999946
0.00995987 -3.46965e-05 0.00666781
0 0 0.005
0.00879092 0.0099736 0.00122196
0.0100038 0.00874822 0.00122246
0.00996006 -3.4791e-05 0.0050019
0.00998539 0.00496807 3.00428e-06
0.00121551 0.0012191 1.76696e-08
0 0.00122008 0.00122008
0 0.00333333 0.01
0 0.00666667 0.01
0.00878526 0.00875406 2.10337e-06
0.0100094 0.00996785 0.00333491
0.00422258 0.00999235 0.00339987
0.00999205 0.00663621 0.0100002
0 0.00333333 0
0 0.00122008 0.00877992
0.00121422 -9.98902e-07 0.00877969
0.00121557 0.00121942 0.0100001
0.00878959 0.00997416 0.00878017
0.00122005 0.00877936 0.00999992
0 0.00877992 0.00877992
0.0100027 0.00874899 0.00878018
0.0066779 0.00998287 1.23798e-06
0.00996659 0.00118565 0.00122324
0.00122132 0.00999937 0.00878021
0.00878374 0.00875481 0.00999997
0.00998378 0.00496907 0.0100002
0 0 0.00333333
0.00663471 -1.98622e-05 2.77882e-06
0.00874234 -2.94339e-05 0.00122325
0.0012056 -1.0012e-06 0.00121223
0 0.00877992 0.00122008
0.00122067 0.00877936 1.43539e-07
0.00121308 0.00999942 0.00121144
0.00996547 0.00118632 0.00878026
0.00874693 0.00119213 0.00999985
0.00663373 -1.92181e-05 0.00999931
0.00874838 0.00119142 3.04891e-06
0.00874131 -2.8849e-05 0.0087798
0.00997728 0.00330057 3.18106e-06
0.00333876 0.00999458 0.0100002
0.00246388 0.00999743 0.00135655
0.00667621 0.00998355 0.0100001
0.00997559 0.00330163 0.0100002
0 0.01 0.005
0.00262607 0.00848427 4.92219e-07
0.0100091 0.00996804 0.00500116
0 0.01 0.00333333
0 0.00166667 0
0.00996061 -3.53286e-05 0.00166992
0 0.00166667 0.01
0 0.00833333 0
0.0100019 0.00830166 2.48351e-06
0.00995966 -3.48001e-05 0.00833365
0.0100098 0.00996761 0.00166879
0.0100087 0.00996825 0.00833373
0.00166937 0.00999822 0.0100001
0 0.01 0.00833333
0.00834481 0.00997547 1.80823e-06
0.00829702 -2.7691e-05 3.18265e-06
0.00829571 -2.7054e-05 0.00999953
0.008343 0.00997599 0.0100001
0 0 0.00833333
0.0100004 0.00830254 0.0100001
0.00165729 -2.55014e-06 4.38328e-07
0 0 0.00166667
0.00334088 0.00999486 5.84913e-07
0.00996745 0.00163312 0.0100001
0.00996904 0.0016324 3.31612e-06
0.00165765 -2.11282e-06 0.0100001
0.00167006 0.00999859 2.10084e-07
0 0.01 0.00166667
0.0100085 0.00996821 0.0100003
0 0 0.01
0.0100101 0.00996745 2.17254e-06
0.00995937 -3.48994e-05 0.00999976
0 0.01 0.01
0.00996086 -3.56241e-05 3.62468e-06
0 0.01 0
0 0 0
0.00500973 0.00998925 9.05772e-07
0.00331497 -6.62575e-06 0.00999958
0 0.00833333 0.01

CELLS 343 686
1 0
1 1
1 2
1 3
1 4
1 5
1 6
1 7
1 8
1 9
1 10
1 11
1 12
1 13
1 14
1 15
1 16
1 17
1 18
1 19
1 20
1 21
1 22
1 23
1 24
1 25
1 26
1 27
1 28
1 29
1 30
1 31
1 32
1 33
1 34
1 35
1 36
1 37
1 38
1 39
1 40
1 41
1 42
1 43
1 44
1 45
1 46
1 47
1 48
1 49
1 50
1 51
1 52
1 53
1 54
1 55
1 56
1 57
1 58
1 59
1 60
1 61
1 62
1 63
1 64
1 65
1 66
1 67
1 68
1 69
1 70
1 71
1 72
1 73
1 74
1 75
1 76
1 77
1 78
1 79
1 80
1 81
1 82
1 83
1 84
1 85
1 86
1 87
1 88
1 89
1 90
1 91
1 92
1 93
1 94
1 95
1 96
1 97
1 98
1 99
1 100
1 101
1 102
1 103
1 104
1 105
1 106
1 107
1 108
1 109
1 110
1 111
1 112
1 113
1 114
1 115
1 116
1 117
1 118
1 119
1 120
1 121
1 122
1 123
1 124
1 125
1 126
1 127
1 128
1 129
1 130
1 131
1 132
1 133
1 134
1 135
1 136
1 137
1 138
1 139
1 140
1 141
1 142
1 143
1 144
1 145
1 146
1 147
1 148
1 149
1 150
1 151
1 152
1 153
1 154
1 155
1 156
1 157
1 158
1 159
1 160
1 161
1 162
1 163
1 164
1 165
1 166
1 167
1 168
1 169
1 170
1 171
1 172
1 173
1 174
1 175
1 176
1 177
1 178
1 179
1 180
1 181
1 182
1 183
1 184
1 185
1 186
1 187
1 188
1 189
1 190
1 191
1 192
1 193
1 194
1 195
1 196
1 197
1 198
1 199
1 200
1 201
1 202
1 203
1 204
1 205
1 206
1 207
1 208
1 209
1 210
1 211
1 212
1 213
1 214
1 215
1 216
1 217
1 218
1 219
1 220
1 221
1 222
1 223
1 224
1 225
1 226
1 227
1 228
1 229
1 230
1 231
1 232
1 233
1 234
1 235
1 236
1 237
1 238
1 239
1 240
1 241
1 242
1 243
1 244
1 245
1 246
1 247
1 248
1 249
1 250
1 251
1 252
1 253
1 254
1 255
1 256
1 257
1 258
1 259
1 260
1 261
1 262
1 263
1 264
1 265
1 266
1 267
1 268
1 269
1 270
1 271
1 272
1 273
1 274
1 275
1 276
1 277
1 278
1 279
1 280
1 281
1 282
1 283
1 284
1 285
1 286
1 287
1 288
1 289
1 290
1 291
1 292
1 293
1 294
1 295
1 296
1 297
1 298
1 299
1 300
1 301
1 302
1 303
1 304
1 305
1 306
1 307
1 308
1 309
1 310
1 311
1 312
1 313
1 314
1 315
1 316
1 317
1 318
1 319
1 320
1 321
1 322
1 323
1 324
1 325
1 326
1 327
1 328
1 329
1 330
1 331
1 332
1 333
1 334
1 335
1 336
1 337
1 338
1 339
1 340
1 341
1 342

CELL_TYPES 343
1
1
1
1
1
1
1
1
1
1
1
1
1
1
1
1
1
1
1
1
1
1
1
1
1
1
1
1
1
1
1
1
1
1
1
1
1
1
1
1
1
1
1
1
1
1
1
1
1
1
1
1
1
1
1
1
1
1
1
1
1
1
1
1
1
1
1
1
1
1
1
1
1
1
1
1
1
1
1
1
1
1
1
1
1
1
1
1
1
1
1
1
1
1
1
1
1
1
1
1
1
1
1
1
1
1
1
1
1
1
1
1
1
1
1
1
1
1
1
1
1
1
1
1
1
1
1
1
1
1
1
1
1
1
1
1
1
1
1
1
1
1
1
1
1
1
1
1
1
1
1
1
1
1
1
1
1
1
1
1
1
1
1
1
1
1
1
1
1
1
1
1
1
1
1
1
1
1
1
1
1
1
1
1
1
1
1
1
1
1
1
1
1
1
1
1
1
1
1
1
1
1
1
1
1
1
1
1
1
1
1
1
1
1
1
1
1
1
1
1
1
1
1
1
1
1
1
1
1
1
1
1
1
1
1
1
1
1
1
1
1
1
1
1
1
1
1
1
1
1
1
1
1
1
1
1
1
1
1
1
1
1
1
1
1
1
1
1
1
1
1
1
1
1
1
1
1
1
1
1
1
1
1
1
1
1
1
1
1
1
1
1
1
1
1
1
1
1
1
1
1
1
1
1
1
1
1
1
1
1
1
1
1
1
1
1
1
1
1
1
1
1
1
1
1
1
1
1
1
1
1
1
1
1
1
1
1
1
1
1
1
1
1

POINT_DATA 343
FIELD FieldData 8

NodeID_(#) 1 343 int
0
1
2
3
4
5
6
7
8
9
10
11
12
13
14
15
16
17
18
19
20
21
22
23
24
25
26
27
28
29
30
31
32
33
34
35
36
37
38
39
40
41
42
43
44
45
46
47
48
49
50
51
52
53
54
55
56
57
58
59
60
61
62
63
64
65
66
67
68
69
70
71
72
73
74
75
76
77
78
79
80
81
82
83
84
85
86
87
88
89
90
91
92
93
94
95
96
97
98
99
100
101
102
103
104
105
106
107
108
109
110
111
112
113
114
115
116
117
118
119
120
121
122
123
124
125
126
127
128
129
130
131
132
133
134
135
136
137
138
139
140
141
142
143
144
145
146
147
148
149
150
151
152
153
154
155
156
157
158
159
160
161
162
163
164
165
166
167
168
169
170
171
172
173
174
175
176
177
178
179
180
181
182
183
184
185
186
187
188
189
190
191
192
193
194
195
196
197
198
199
200
201
202
203
204
205
206
207
208
209
210
211
212
213
214
215
216
217
218
219
220
221
222
223
224
225
226
227
228
229
230
231
232
233
234
235
236
237
238
239
240
241
242
243
244
245
246
247
248
249
250
251
252
253
254
255
256
257
258
259
260
261
262
263
264
265
266
267
268
269
270
271
272
273
274
275
276
277
278
279
280
281
282
283
284
285
286
287
288
289
290
291
292
293
294
295
296
297
298
299
300
301
302
303
304
305
306
307
308
309
310
311
312
313
314
315
316
317
318
319
320
321
322
323
324
325
326
327
328
329
330
331
332
333
334
335
336
337
338
339
340
341
342

Component_(#) 1 343 int
0
0
0
0
0
0
0
0
0
0
0
0
0
0
0
0
0
0
0
0
0
0
0
0
0
0
0
0
0
0
0
0
0
0
0
0
0
0
0
0
0
0
0
0
0
0
0
0
0
0
0
0
0
0
0
0
0
0
0
0
0
0
0
0
0
0
0
0
0
0
0
0
0
0
0
0
0
0
0
0
0
0
0
0
0
0
0
0
0
0
0
0
0
0
0
0
0
0
0
0
0
0
0
0
0
0
0
0
0
0
0
0
0
0
0
0
0
0
0
0
0
0
0
0
0
0
0
0
0
0
0
0
0
0
0
0
0
0
0
0
0
0
0
0
0
0
0
0
0
0
0
0
0
0
0
0
0
0
0
0
0
0
0
0
0
0
0
0
0
0
0
0
0
0
0
0
0
0
0
0
0
0
0
0
0
0
0
0
0
0
0
0
0
0
0
0
0
0
0
0
0
0
0
0
0
0
0
0
0
0
0
0
0
0
0
0
0
0
0
0
0
0
0
0
0
0
0
0
0
0
0
0
0
0
0
0
0
0
0
0
0
0
0
0
0
0
0
0
0
0
0
0
0
0
0
0
0
0
0
0
0
0
0
0
0
0
0
0
0
0
0
0
0
0
0
0
0
0
0
0
0
0
0
0
0
0
0
0
0
0
0
0
0
0
0
0
0
0
0
0
0
0
0
0
0
0
0
0
0
0
0
0
0
0
0
0
0
0
0
0
0
0
0
0
0
0
0
0
0
0
0
0
0
0
0
0
0
0
0
0
0
0
0

NodalMass_(kg) 1 343 double
3.15563e-06
1.41304e-05
2.20912e-06
1.71484e-05
8.42e-06
9.09306e-06
9.93033e-06
7.52198e-06
6.81096e-06
5.58223e-06
3.10888e-06
1.07575e-05
4.87011e-06
1.64955e-05
3.0246e-06
8.05984e-06
6.703e-06
1.0877e-05
4.18978e-06
8.16106e-06
6.14143e-06
1.17902e-05
2.23114e-06
4.25176e-06
1.09915e-05
7.41467e-06
4.21871e-06
3.92484e-06
3.08766e-06
1.31268e-05
7.72627e-06
1.65404e-05
1.19037e-05
7.29666e-06
3.81683e-06
1.11001e-05
3.81317e-06
1.39137e-05
6.37414e-06
8.00975e-06
7.6712e-06
1.18847e-05
1.6399e-05
2.78633e-06
8.93599e-06
2.58087e-06
7.57362e-06
4.23241e-06
1.31286e-05
3.80168e-06
2.7746e-06
7.16776e-06
1.21307e-05
5.11765e-06
8.19728e-06
4.58094e-06
2.79503e-06
3.26126e-06
4.12443e-06
2.11915e-06
3.35177e-06
3.61669e-06
1.56838e-05
7.33679e-06
8.24695e-06
5.00369e-06
2.82625e-06
7.20276e-06
3.26815e-06
4.18751e-06
2.02785e-06
2.42152e-06
3.11835e-06
5.97459e-06
5.87101e-06
4.09374e-06
5.45463e-06
2.28825e-06
4.49759e-06
4.38192e-06
4.50892e-06
4.39234e-06
4.27273e-06
5.32031e-06
1.53201e-06
2.38869e-06
2.02885e-06
4.38798e-06
3.17972e-06
3.14298e-06
4.61567e-06
5.87645e-06
8.18088e-06
2.48341e-06
1.53815e-05
3.49683e-06
7.35227e-06
2.01314e-06
2.0408e-06
7.98183e-06
4.41293e-06
7.1389e-06
1.20123e-06
5.03343e-06
1.61257e-06
4.12601e-06
8.73748e-06
4.37849e-06
7.97173e-06
2.13557e-06
3.38137e-06
9.48623e-06
7.40262e-06
1.80226e-06
2.10222e-06
7.98889e-06
1.87983e-06
7.44814e-06
4.19782e-06
2.37156e-06
4.31705e-06
6.06441e-06
4.30905e-06
2.16843e-06
1.8986e-06
1.81294e-06
3.89762e-06
2.44299e-06
1.65628e-06
8.01374e-06
1.64513e-06
2.3931e-06
3.01363e-06
2.99431e-06
1.36541e-06
1.87293e-06
2.09622e-06
1.94762e-06
1.87618e-06
6.37913e-06
4.58628e-06
2.02767e-06
1.61999e-06
2.41284e-06
3.8865e-06
4.44973e-06
2.29839e-06
1.17349e-05
3.11811e-06
1.354e-06
3.45063e-06
1.81846e-06
2.9382e-06
1.37381e-06
2.41464e-06
2.10451e-06
2.63927e-06
2.14166e-06
1.7943e-06
3.19976e-06
1.36989e-06
2.43489e-06
2.08158e-06
1.3601e-06
2.17203e-06
1.89924e-06
3.16996e-06
2.6119e-06
2.37677e-06
1.60225e-06
1.90684e-06
5.49206e-06
1.87878e-06
3.14313e-06
2.97301e-06
1.18454e-06
1.89263e-06
2.04166e-06
2.73572e-06
2.42405e-06
3.23083e-06
3.19752e-06
3.2142e-06
1.94492e-06
1.61196e-06
1.86876e-06
3.22435e-06
2.1114e-06
2.96917e-06
6.15288e-06
2.3097e-06
2.39729e-06
2.38029e-06
2.64508e-06
1.66557e-06
1.82377e-06
2.06583e-06
5.73271e-06
2.08467e-06
2.18324e-06
2.43522e-06
3.1188e-06
3.17316e-06
2.05447e-06
1.9592e-06
3.05718e-06
6.44327e-06
2.08796e-06
2.72615e-06
2.15709e-06
1.86812e-06
2.0028e-06
2.10999e-06
2.88994e-06
2.3222e-06
2.3979e-06
1.97629e-06
6.4127e-06
2.16225e-06
3.29198e-06
2.10223e-06
2.66566e-06
1.94415e-06
2.91865e-06
2.58116e-06
2.11703e-06
2.09534e-06
1.91719e-06
7.06046e-06
2.25203e-06
2.06378e-06
6.28159e-06
2.12147e-06
2.90924e-06
2.12921e-06
6.4487e-06
1.41701e-06
2.0682e-06
6.58062e-06
2.52584e-06
2.39732e-06
7.42191e-07
2.22368e-06
7.06751e-07
7.00657e-07
8.93749e-07
2.53536e-06
2.26535e-06
1.33607e-06
7.84725e-07
2.32303e-06
6.06694e-07
6.68276e-07
6.84307e-07
2.51242e-06
2.31629e-06
7.8367e-07
6.80839e-07
6.22692e-06
6.7471e-07
6.65305e-07
7.01158e-07
1.8232e-06
1.90695e-06
6.86722e-07
7.04792e-07
1.86445e-06
2.28572e-06
6.8045e-07
7.16005e-07
1.82373e-06
6.01079e-07
2.02791e-06
7.4579e-07
5.74423e-07
1.80052e-06
1.454e-06
2.2702e-06
1.80636e-06
2.15356e-06
1.79089e-06
1.79456e-06
6.8231e-07
2.24737e-06
1.45239e-06
1.79556e-06
6.97875e-07
6.24265e-07
6.62717e-07
1.44627e-06
1.40138e-06
2.15258e-06
1.82851e-06
1.3994e-06
1.43932e-06
2.19226e-06
6.97732e-07
1.77726e-06
1.79162e-06
6.54258e-07
7.3397e-07
2.34895e-06
7.10392e-07
6.56982e-07
6.26314e-07
2.18926e-06
6.12493e-07
6.03901e-07
5.92831e-07
5.12031e-07
5.11667e-07
4.9467e-07
4.97016e-07
4.96269e-07
5.33079e-07
4.94191e-07
4.97855e-07
4.86862e-07
4.90626e-07
4.94649e-07
4.94954e-07
4.91922e-07
4.89615e-07
4.96354e-07
4.95189e-07
4.82188e-07
1.10854e-06
5.3299e-07
5.44763e-07
5.36655e-07
5.15417e-07
5.01772e-07
5.53774e-07
5.53774e-07
5.53774e-07
5.53774e-07
5.53774e-07
5.53774e-07
5.50785e-07
5.50785e-07
7.45291e-07
7.11668e-07
4.9897e-07

NodalForce_(N) 3 343 double
-1.65216e-07 5.06788e-08 -1.71248e-08
-1.44086e-06 7.02417e-07 -3.63295e-07
0.000521869 0.000494234 0.000481213
1.15077e-06 9.38672e-07 -3.93046e-07
4.50457e-06 4.46697e-06 -1.7334e-06
3.48683e-06 3.95399e-06 -1.95495e-06
4.44285e-07 9.86805e-06 -5.03873e-06
-1.04025e-06 4.82302e-06 -2.45238e-06
4.47806e-06 5.85792e-06 -2.83284e-06
2.70492e-08 2.07841e-06 -1.03203e-06
3.00313e-06 1.38879e-06 -6.25647e-07
9.57278e-06 6.3434e-06 -2.78104e-06
5.1297e-06 2.38305e-06 -8.0216e-07
3.50848e-06 7.73175e-07 -5.15997e-07
2.28151e-06 1.098e-06 -6.6012e-07
-1.03022e-06 6.1728e-06 -3.41061e-06
-1.83893e-06 4.33908e-06 -2.24223e-06
1.69948e-06 7.43973e-07 -2.96141e-07
-0.00148379 0.000846781 -0.000269176
2.24369e-07 1.50635e-07 -2.63926e-08
1.22093e-06 5.42738e-06 -2.56738e-06
8.69606e-06 1.38988e-05 -6.3234e-06
-0.000646484 -0.00192615 -0.00099761
6.48707e-07 1.92934e-06 -8.36676e-07
3.15026e-06 6.07105e-06 -3.0642e-06
-5.74706e-07 1.9211e-06 -1.36631e-06
7.74081e-07 1.09614e-07 -5.43649e-08
2.2217e-06 1.88924e-06 -8.29754e-07
-1.27358e-06 2.42345e-07 -2.34918e-07
-2.96035e-06 3.71325e-07 -3.47032e-07
-3.35074e-06 1.51823e-06 -1.44832e-06
-7.10294e-06 1.75361e-05 -9.67554e-06
5.41933e-06 1.27997e-05 -6.89261e-06
-1.51854e-06 8.55143e-06 -4.51234e-06
-5.0368e-06 6.33185e-06 -3.22192e-06
-8.37788e-06 1.05536e-05 -5.40053e-06
-6.0082e-06 4.95425e-06 -2.38857e-06
-1.80161e-05 1.48667e-05 -8.21304e-06
2.03951e-06 1.25881e-06 -5.80544e-07
3.82281e-06 2.42237e-06 -1.63876e-06
4.42368e-06 2.63842e-06 -7.79217e-07
-2.83163e-06 4.74487e-06 -2.77624e-06
-1.04005e-06 7.02414e-07 -2.65602e-07
-1.14383e-06 4.02098e-07 -9.99529e-08
-3.66806e-06 2.25607e-06 -8.61981e-07
0.00110203 0.000932925 -0.000427741
-5.47461e-07 2.4365e-07 -1.05974e-07
-0.000318229 0.00120841 -3.32269e-05
5.13318e-07 6.70658e-07 -3.89831e-07
3.20857e-07 9.01785e-08 -3.56232e-08
1.35109e-07 2.34152e-06 -1.40104e-06
1.06331e-06 4.17277e-06 -2.62057e-06
-1.71275e-06 3.50168e-07 -2.12293e-07
-5.56109e-07 4.69804e-07 -2.5468e-07
-1.84898e-07 1.92216e-07 -1.01962e-07
7.67718e-07 7.52274e-06 -3.97096e-06
0.000958645 0.000657961 0.000784073
-5.17369e-07 1.01457e-07 -5.60907e-08
-0.0001215 1.38144e-05 -0.000408287
-8.51796e-07 3.45706e-06 -1.8323e-06
1.2706e-06 4.23431e-07 -3.52375e-07
3.0288e-06 6.76157e-06 -3.14811e-06
6.02474e-06 2.0163e-05 -9.61848e-06
1.70153e-06 9.34354e-06 -4.63036e-06
3.74084e-06 2.64923e-06 -7.83693e-07
-9.09889e-07 5.9241e-08 -2.39209e-08
1.8554e-06 6.47344e-07 -1.57737e-07
4.05585e-06 4.46357e-06 -2.61564e-06
-2.83403e-06 5.34426e-06 -2.77714e-06
5.26752e-06 6.38854e-06 -2.78081e-06
-2.79083e-07 3.93347e-07 -2.47208e-07
1.35021e-06 4.1325e-07 -2.32253e-07
1.60504e-06 7.46584e-07 -1.76536e-07
1.2859e-06 1.93816e-06 -1.26691e-06
5.73104e-07 8.30844e-07 -3.67771e-07
0.00170302 0.000696846 0.000348754
7.59586e-07 2.16653e-06 -1.05421e-06
-7.99333e-08 3.94725e-08 -2.62389e-08
-7.07059e-07 2.62845e-06 -1.57094e-06
-3.06264e-06 2.89138e-06 -1.61237e-06
-2.09929e-06 1.53829e-06 -8.1038e-07
-4.5225e-07 1.33616e-06 -7.58877e-07
-4.13442e-06 7.01036e-06 -3.62187e-06
-1.25373e-06 5.4602e-07 -3.53648e-07
6.9994e-05 -0.00122723 0.000479627
-4.36991e-07 1.64811e-09 -1.19597e-08
0.000120252 -0.000803935 0.000507653
-0.0010513 -0.000388227 5.78318e-05
-0.000350743 0.000357223 -0.000171556
-7.69694e-07 2.74669e-07 -2.15658e-07
2.62482e-07 6.81707e-08 -5.0321e-08
-8.58371e-07 2.30623e-06 -1.26005e-06
4.03142e-07 1.0985e-06 -9.90813e-07
2.94009e-06 2.33018e-06 -1.21234e-06
1.91942e-05 1.93676e-05 -8.88021e-06
3.46907e-06 3.85615e-06 -1.59829e-06
4.37949e-06 5.73468e-06 -2.41554e-06
5.99426e-07 3.58048e-06 -1.76893e-06
-3.40299e-05 0.00018627 3.4587e-05
-4.51252e-06 5.47339e-06 -2.63471e-06
1.13163e-06 3.46176e-06 -1.66812e-06
-2.89442e-07 4.86192e-06 -2.76166e-06
-5.9846e-07 2.40387e-07 -8.04999e-08
-6.64029e-06 6.53196e-06 -3.14967e-06
9.58588e-08 2.95014e-07 -1.23748e-07
3.10534e-06 3.55e-06 -1.66254e-06
-8.09757e-06 5.88547e-06 -2.93489e-06
6.552e-06 6.638e-06 -2.83441e-06
7.47101e-06 6.45296e-06 -2.56184e-06
3.09405e-07 1.96197e-08 -2.23037e-08
-4.19421e-06 2.85905e-06 -1.81453e-06
-7.77115e-06 4.13677e-06 -2.47513e-06
-4.87997e-06 3.97933e-06 -2.74588e-06
-0.000931656 -0.000374294 -0.000968979
1.28465e-06 3.95418e-06 -1.86561e-06
5.749e-07 2.45223e-07 -1.57517e-07
-2.73102e-06 3.11384e-06 -1.6445e-06
-3.74442e-06 8.83188e-06 -4.60623e-06
-6.39178e-06 2.90824e-06 -1.53438e-06
3.56952e-06 2.61983e-06 -9.80868e-07
4.67689e-06 8.04153e-06 -3.71082e-06
3.22581e-06 7.64341e-06 -3.80001e-06
9.18661e-07 1.67976e-07 -3.92959e-08
0.000254843 0.000173289 0.000197501
3.99779e-07 7.42649e-08 4.66475e-11
-9.22433e-07 2.95516e-06 -1.5388e-06
-5.25874e-06 2.31212e-06 -1.50017e-06
-0.000102819 -0.000829485 -0.000564232
3.5214e-08 2.76133e-08 -2.22972e-08
-4.71201e-06 2.36792e-06 -9.35379e-07
-1.77137e-06 2.16072e-06 -1.08012e-06
-1.81592e-06 3.91045e-06 -2.05762e-06
3.85786e-06 2.21485e-06 -1.06813e-06
2.47791e-06 2.70619e-06 -1.56906e-06
0.000810909 -0.00124397 -0.000111523
-2.43662e-07 2.32309e-08 -1.53817e-08
3.36777e-05 0.000144008 -0.000206003
1.99075e-06 3.03024e-06 -1.35366e-06
-1.88752e-06 3.0681e-06 -1.63591e-06
-5.36866e-06 7.68846e-06 -4.15745e-06
1.96666e-06 5.53334e-06 -3.09122e-06
3.14668e-06 2.37701e-06 -1.1122e-06
2.82384e-06 2.50444e-06 -1.02866e-06
3.26099e-06 4.5115e-06 -2.07645e-06
-0.00119507 0.000367873 5.28409e-05
6.76857e-06 3.80526e-06 -1.48136e-06
1.7387e-06 1.14324e-06 -3.53207e-07
-4.33877e-06 1.30107e-05 -6.85494e-06
-7.39304e-07 5.34879e-06 -2.71578e-06
-8.79896e-07 4.88068e-07 -1.72507e-07
-2.05752e-06 5.17187e-07 -1.65921e-07
2.6712e-07 5.04207e-08 -1.94333e-08
-0.000400058 -0.000838716 -6.29855e-05
-7.06171e-08 2.26148e-06 -1.16977e-06
-3.6445e-06 2.21217e-06 -1.0306e-06
-6.6134e-07 2.07573e-06 -1.17238e-06
0.000551187 -0.000988547 0.000288336
-0.00160298 0.000178361 0.000596948
7.0894e-07 1.36418e-06 -8.7067e-07
2.52577e-06 5.60522e-06 -2.73736e-06
1.34682e-06 6.8531e-07 -1.80259e-07
-6.88598e-07 2.95083e-07 -1.30913e-07
5.93404e-07 2.48979e-06 -1.22124e-06
2.45249e-07 7.09336e-07 -4.84092e-07
-6.24547e-07 3.53362e-06 -1.87019e-06
-1.08956e-07 2.33447e-06 -1.30778e-06
-3.73501e-07 2.94248e-06 -1.65149e-06
-1.16918e-06 3.08814e-07 -3.61419e-07
-3.94101e-06 2.3417e-06 -1.41052e-06
-2.90188e-06 1.69959e-06 -8.86057e-07
-1.88388e-06 1.01992e-06 -7.32319e-07
-3.55327e-06 4.32827e-06 -2.40533e-06
1.54442e-06 2.39794e-06 -1.0911e-06
7.53129e-07 3.03972e-07 -3.32656e-07
9.55277e-07 7.16147e-07 -6.57045e-07
6.29583e-07 3.22082e-07 -2.7079e-07
-1.56801e-06 1.97328e-06 -1.03815e-06
1.25495e-06 4.18443e-07 -1.02962e-07
-1.46846e-06 4.55381e-06 -2.35439e-06
0.000373442 -0.000735301 -0.000633935
2.35549e-06 5.46875e-06 -2.80627e-06
-1.51532e-06 4.19961e-06 -2.30803e-06
2.47159e-07 5.79554e-06 -2.84812e-06
0.000356515 -0.000918014 0.000506429
-4.47979e-08 1.87515e-07 -1.15008e-07
3.31139e-06 2.37643e-06 -9.48935e-07
4.33039e-06 4.31297e-06 -2.1493e-06
1.9149e-06 2.86122e-06 -1.5128e-06
-2.68595e-06 1.84405e-06 -7.19582e-07
-2.92193e-06 2.6422e-06 -1.21272e-06
-2.53449e-06 1.43939e-06 -5.67258e-07
-2.37299e-06 2.16057e-06 -9.72252e-07
2.69228e-07 1.83602e-07 -2.61576e-07
-9.45274e-07 6.74864e-07 -5.94509e-07
9.09628e-07 4.23867e-07 -9.57197e-08
1.24815e-06 5.29091e-07 -1.30604e-07
-8.52961e-07 3.57759e-06 -1.85162e-06
-3.68772e-06 1.32022e-06 -8.66589e-07
-1.2521e-08 3.54741e-06 -1.81038e-06
-1.79441e-06 1.61022e-06 -1.07259e-06
-4.44995e-06 3.21462e-06 -1.59649e-06
0.000406297 -0.000535613 0.000191481
-5.15352e-07 5.4124e-08 -8.03912e-09
-1.72114e-05 0.0005642 0.000219686
-1.99071e-06 6.62067e-07 -4.44717e-07
-3.22845e-06 1.15433e-06 -5.54746e-07
-1.38886e-06 2.36127e-06 -1.56058e-06
-1.10697e-06 1.9484e-06 -1.16316e-06
2.6639e-06 2.16774e-06 -7.5223e-07
2.52635e-06 1.71997e-06 -5.44088e-07
-3.67173e-07 3.27239e-08 3.04788e-09
-5.8881e-08 2.82087e-06 -1.46114e-06
8.3492e-07 3.54529e-06 -1.80924e-06
-3.69663e-06 2.71756e-06 -1.21871e-06
2.01468e-06 1.36639e-06 -8.30504e-07
8.76026e-07 4.38688e-07 -1.52756e-07
2.37215e-06 3.55977e-06 -1.72857e-06
-6.13181e-08 4.14231e-07 -2.41315e-07
-8.54552e-07 1.2855e-06 -8.78354e-07
-3.22981e-06 3.89098e-06 -2.30719e-06
-1.59415e-06 1.19802e-06 -5.57222e-07
6.63771e-07 4.51229e-06 -2.29467e-06
-2.38674e-06 1.12565e-06 -4.7702e-07
3.67368e-06 3.30357e-06 -1.31006e-06
-1.35709e-06 3.79785e-07 -9.60556e-08
-0.000860608 -0.000189612 0.0003117
1.69799e-07 6.30924e-07 -4.79081e-07
2.44524e-06 1.43027e-06 -4.66995e-07
-6.01098e-07 1.15145e-06 -5.70905e-07
-1.79838e-06 8.34712e-07 -2.64195e-07
1.82793e-06 1.04707e-06 -2.71652e-07
2.19324e-07 1.0134e-06 -5.65009e-07
0.000887838 -0.000886762 1.14413e-05
-0.000360366 -5.82192e-05 0.000223238
-1.38636e-06 7.29409e-07 -6.75895e-07
-2.47779e-06 2.28132e-06 -1.28331e-06
1.15698e-06 1.05205e-06 -4.17266e-07
-6.00628e-07 3.41917e-06 -1.7715e-06
-1.11198e-06 1.03099e-06 -5.0502e-07
1.30513e-06 1.26307e-06 -9.1121e-07
-1.94141e-06 4.01048e-06 -2.12064e-06
0.000502482 -9.8253e-06 0.000389524
-3.30584e-06 2.76676e-06 -1.62246e-06
2.3436e-07 2.80457e-07 -1.3296e-07
0.000686776 -0.000629711 -6.4499e-06
-3.42776e-07 4.61645e-07 -2.71819e-07
0.00125802 -0.000188873 -0.000277294
-3.0556e-06 3.70315e-06 -2.01887e-06
-1.73875e-06 2.2119e-06 -1.24572e-06
5.47185e-05 -0.000383528 9.80855e-05
-1.74171e-07 1.14715e-06 -6.85126e-07
-0.00025819 -0.000302208 -0.000249374
7.67832e-07 1.31888e-06 -5.91634e-07
-8.76799e-07 1.17099e-06 -5.76867e-07
-1.93745e-06 6.4285e-07 -5.73736e-07
1.27864e-06 4.0822e-06 -2.01103e-06
3.76331e-07 5.5759e-07 -2.6411e-07
-0.000842149 -0.000871723 -0.000123989
1.17856e-06 1.2888e-06 -5.55936e-07
9.43288e-07 4.55367e-07 -1.77208e-07
1.08984e-06 1.30188e-06 -5.65726e-07
-0.000726334 -0.000683504 -3.18155e-05
-3.70047e-06 2.50776e-06 -1.31095e-06
-3.33388e-06 3.18718e-06 -1.70051e-06
9.59564e-07 1.34534e-06 -5.9556e-07
-5.68501e-07 1.19851e-06 -6.58966e-07
5.17704e-08 8.13481e-08 -1.00213e-08
0.000177835 0.000884368 -0.000430889
-0.000205408 0.000175938 0.000178302
-4.44184e-05 -0.000263765 0.000153084
-3.38067e-06 2.41584e-06 -1.36241e-06
-1.07262e-06 1.03233e-06 -5.10448e-07
-1.86019e-06 7.59526e-07 -2.35915e-07
1.30944e-07 1.21148e-06 -6.73422e-07
6.80643e-05 -0.000237597 0.000157829
0.00012918 0.000647033 0.000196544
3.02504e-07 7.68289e-08 4.16839e-09
3.48169e-07 6.04978e-08 -2.93993e-08
-1.64138e-06 2.48452e-06 -1.30524e-06
-3.60942e-08 5.18572e-08 -1.89632e-08
-6.93427e-06 0.000578663 -0.000216012
-1.12499e-06 2.96495e-06 -1.57017e-06