# vtk DataFile Version 4.2
vtk output
ASCII
DATASET UNSTRUCTURED_GRID

POINTS 343 double
0.00112244 0.00419495 9.79493e-08
0.00217076 0.00498258 0.00217544
0 0.00419538 0.00112517
0.00193011 0.00195456 0.00194221
0.00516942 0.00240812 0.0050329
0.00517089 0.00383094 0.00639833
0.00762058 0.00477768 0.00500046
0.00622339 0.0048518 0.00369276
0.00683467 0.00329057 0.00691533
0.00498967 0.00499325 0.00500047
0.00417942 0.00111923 0.00999981
0.00528011 0.00208164 0.00790503
0.00419038 -6.17823e-06 0.00831788
0.00201185 0.00200254 0.00803333
0.00428455 0.00253366 0.00999986
0.00695281 0.00644835 0.00694835
0.00641109 0.00618373 0.00518419
0.00226031 0.00218475 0.00514626
0 0.00143586 0.00417514
0.00159433 0.00346617 0.00403711
0.00683711 0.00319602 0.00316261
0.00774517 0.00221588 0.00506548
0 0.00270918 0.00154168
0.00415963 0.00142969 5.95263e-07
0.00500865 0.00218915 0.00219856
0.00396255 0.00352722 0.00160352
0.00134554 -5.14027e-07 0.00406007
0.00418512 -6.40142e-06 0.00168865
0.00262595 0.00695178 2.96867e-07
0.00193772 0.00805279 0.00194498
0.00408686 0.00624842 0.00164555
0.00799719 0.00798811 0.00799909
0.00796142 0.00481792 0.00802409
0.00838464 0.00608209 0.00594975
0.0099933 0.0088291 0.00419417
0.00757284 0.00763759 0.00496517
0.00856104 0.00998283 0.0041683
0.00797318 0.00797335 0.00201742
0.00353526 0.00303692 0.0069599
0.00443584 0.00366248 0.0083247
0.00389244 0.00160136 0.0059694
0.0050022 0.00766899 0.0076775
0.00198854 0.00800791 0.00798978
0.00282533 0.00999761 0.00712745
0.00391433 0.00839997 0.00595827
0 0.00695361 0.00262895
0.00164602 0.00623929 0.00408796
0 0.0040177 0.00850214
0.00231406 0.00498578 0.00766167
0.00143259 0.0041745 0.01
0.00716956 0.0071197 0.00999944
0.00611469 0.00597182 0.00841853
0.0020511 0.00794146 0.00474196
0.00304239 0.00694301 0.00646799
0.00158633 0.00607837 0.00592609
0.00998406 0.00578721 0.00831709
0 0.00718191 0.00711644
0.00158438 0.00577348 9.77399e-08
0 0.00577432 0.00158701
0.00998827 0.00716089 0.00711646
0.00286594 0.0033495 0.00999998
0.00997023 0.00141346 0.00417616
0.00803737 0.00194595 0.00198027
0.00838836 0.00350495 0.0039998
0.00372623 0.00164881 0.00412863
0.00150848 0.0099997 0.0058151
0.00281014 -2.98056e-06 0.00712792
0.0061074 0.00417268 0.008377
0.00998836 0.00725298 0.00419645
0.0085302 -1.8286e-05 0.00416897
0.00334211 0.00287011 4.12903e-07
0.00269934 0.00153922 0.00999999
0.00281947 -3.2608e-06 0.00283222
0.00479586 0.00519466 0.00755493
0.00315799 0.00314653 0.0031676
0 0.00849157 0.00581511
0.00486443 0.00367035 0.00378674
0.00153707 0.00270867 9.01258e-08
0.00579476 0.00831701 0.00999948
0.00597937 0.00999066 0.00850603
0.00421046 0.0099948 0.00831793
0.00401446 0.00849885 0.00999957
0.00999228 0.00847034 0.00581536
0.00314654 0.00683371 0.00315111
0 0.00748929 0.00137438
0.00137311 0.00748899 4.73203e-08
0 0.00287343 0.00335182
0 0.00580816 0.00831736
0 0.00429792 0.00253898
0.00253351 0.00429607 3.13086e-07
0.00143307 0.00581918 0.01
0.0051729 0.0064693 0.0064008
0.00360133 0.00650955 0.00823428
0.00693034 0.0026151 0.00999959
0.00799836 0.00194266 0.00803575
0.0069441 -1.3645e-05 0.00308281
0.0060016 0.00165434 0.00361347
0.00997458 0.00285155 0.00335299
0 0.00140616 0.00256446
0.00636922 0.00821804 0.00642139
0.00579858 0.00142528 1.09175e-06
0.00602232 0.00354251 0.00160401
0.00315497 0.00999689 0.00582542
0.00855578 0.00998297 0.00583352
0.00255472 0.00140348 3.41435e-07
0.0059525 -1.08691e-05 0.00149526
0.00627711 0.00827807 0.00361785
0.008525 -1.816e-05 0.00583393
0.0061866 0.00166248 0.00636572
0.0014018 0.00256406 0.0100001
0.00710911 0.00716955 9.4326e-07
0.0051632 0.00768313 0.00216944
0.005935 0.00608487 0.0016026
0 0.00686719 0.00578184
0.00997003 0.00138363 0.00256585
0.00177177 0.00360992 0.00640794
0.00999212 0.00846543 0.00262467
0.00840031 0.00617309 0.00413352
0.00597949 0.00999013 0.00149447
0.00694285 -1.34494e-05 0.00692687
0.00997034 0.00141322 0.00582024
0.00837764 0.00355684 0.00606136
0.00150193 -6.61291e-07 0.00581526
0 0.0013659 0.00748679
0.00136365 -5.65097e-07 0.00752895
0.00998718 0.00684613 0.00578216
0.00581302 0.00848247 7.06815e-07
0 0.0075208 0.00859127
0.00136432 0.0074864 0.00999996
0.00422904 0.00820089 0.00362859
0.00858868 0.00998288 0.00751207
0.00999288 0.00860911 0.00752622
0.00575407 0.00157739 0.00999963
0.00724238 0.00417547 0.00999955
0 0.0057735 0.00666667
0.00136944 0.00999966 0.00752896
0 0.00863025 0.00752641
0.00855678 -1.85835e-05 0.00250863
0.00998728 0.0069323 0.00262998
0.00844784 0.00632566 0.00216389
0.00849528 0.00580762 0.00999944
0.00746446 0.00135975 0.0099995
0.00855783 -1.83257e-05 0.00751217
0.00997022 0.00134368 0.00748682
0 0.00143551 0.00581971
0.00595265 -1.05653e-05 0.0085059
0.00419482 -6.44209e-06 0.00340034
0.007919 0.00469276 0.00203548
0.00997893 0.0042764 0.0025402
0.00422825 0.00999463 0.00666667
0.00283494 0.00999764 0.00283214
0.00130727 -5.45856e-07 0.00241832
0 0.00727418 0.00419576
0.00998379 0.00575251 0.0066668
0.00697288 0.00998744 0.00308215
0.00750217 0.00862346 0.00999941
0 0.00574334 0.00336387
0 0.0043297 0.00416652
0.00685794 0.00577304 0.00999958
0.00997524 0.00300058 0.00691547
0.00420692 -6.30656e-06 0.00666692
0.00247831 0.00999798 0.0086116
0.00746146 0.00135086 1.36393e-06
0.00576647 0.00665864 0.00999953
0.00998947 0.00749984 0.00859086
0.00859926 0.00753702 0.00999939
0.00689587 0.00300967 1.28813e-06
0.00335855 0.00574064 4.96491e-07
0.00752266 0.00861628 9.06271e-07
0.00751473 0.00998562 0.00138811
0.0057755 0.0068587 7.66071e-07
0.00696569 0.00635916 0.00303406
0.00748515 -1.5487e-05 0.00138891
0.00287869 0.00499722 0.00999993
0.00432284 0.00582905 0.00999971
0.00431935 0.00416199 0.00999977
0.00751491 0.00998609 0.00861571
0.00246513 -2.53689e-06 0.00861173
0.00998345 0.00572213 0.00336487
0 0.00302218 0.00691532
0.00997842 0.00399651 0.00850187
0.00848262 0.00400059 1.41943e-06
0.00997399 0.00268705 0.0015432
0 0.00244495 0.00857025
0.00244402 0.00856837 0.0099998
0.00748543 -1.51693e-05 0.00861558
0.00846364 0.00260685 0.00999944
0.0088318 0.00417626 0.00999941
0.00567109 0.00999121 0.00583349
0.00518224 0.00757672 0.00503264
0.00564342 0.00999116 0.00421551
0.00697157 0.00998771 0.00692663
0.00301861 0.00691344 0.00999978
0.00415717 0.00432517 7.3004e-07
0.00282227 -3.39993e-06 0.00440491
0.0031385 -3.78089e-06 0.00582572
0.00997857 0.00417368 0.00112664
0.00363655 0.0083337 0.00158862
0.00997912 0.00430829 0.00416741
0.0066558 0.00576253 1.0773e-06
0.00858772 0.00998257 0.00250783
0 0.00848692 0.00262374
0.00135143 0.00999967 0.00405995
0 0.00885053 0.00419359
0.00419327 0.00884511 5.32662e-07
0.00420623 0.00999445 0.00168812
0.00498918 0.00478522 0.00237943
0.00720396 0.00450877 1.25133e-06
0.00561786 -9.99487e-06 0.00421612
0.00564557 -9.95646e-06 0.00583382
0.00131303 0.00999969 0.0024181
0.00854577 0.00242713 1.50207e-06
0.00997991 0.00450058 0.0072196
0.00711479 0.0099872 0.00500053
0.00572784 0.00335548 0.00999967
0.00244675 -2.62119e-06 0.00135683
0.00997356 0.00242314 0.00857001
0.00239108 0.00478989 0.00500007
0.00581989 0.00432126 1.08459e-06
0.00830374 0.00579198 1.215e-06
0.00548002 0.00999183 0.00722047
0.00997921 0.00430884 0.00583375
0.00540383 0.00999167 0.00277598
0.00708576 -1.39053e-05 0.00500107
0.00283729 0.00999765 0.00440454
0 0.00452174 0.00721958
0.00451674 0.00721509 0.00999962
0.00545491 -9.33169e-06 0.00722043
0.00359717 0.00507078 0.00359681
0.00425322 0.00999457 0.00500834
0.00423134 -6.42491e-06 0.00500884
0.00366496 0.00521375 0.0061748
0 0.005744 0.00499998
0 0.00433013 0.00583333
0.0049919 0.00573789 8.59031e-07
0.00497862 0.00633306 0.00355421
0.00537866 -9.44156e-06 0.00277668
0.00998357 0.00572293 0.00500055
0.00368651 0.00640468 0.00484414
0.00573273 0.00499226 0.00999963
0.00998349 0.00575295 0.00158831
0 0.00666667 0
0.00858255 0.0075038 1.052e-06
0.00331797 -4.95591e-06 9.3014e-07
0 0.01 0.00666667
0.00500138 0.00999279 0.00999971
0 0.00288419 0.00499914
0.00998893 0.00746786 0.00137559
0.00998633 0.0066452 1.24525e-06
0 0.005 0.01
0.00498409 0.00287701 8.61527e-07
0 0.005 0
0.00996579 -2.28522e-05 0.00333466
0.00999714 0.00997838 0.0066666
0.0041921 0.00726955 5.84297e-07
0.00997466 0.00286248 0.00499987
0.00497832 -8.84211e-06 1.21611e-06
0 0 0.00666667
0.00378975 0.00361309 0.00522657
0.00497852 -8.47818e-06 0.00999946
0.00996601 -2.26654e-05 0.00666695
0 0 0.005
0.00877866 0.00998182 0.00122098
0.00999301 0.0087582 0.00122119
0.00996589 -2.27222e-05 0.00500084
0.0099811 0.00497833 1.42595e-06
0.00121568 0.00121935 3.13554e-08
0 0.00122008 0.00122008
0 0.00333333 0.01
0 0.00666667 0.01
0.00877486 0.00876198 9.58505e-07
0.00999694 0.00997812 0.00333397
0.00421657 0.00999453 0.00339985
0.0099869 0.00664581 0.00999936
0 0.00333333 0
0 0.00122008 0.00877992
0.00121485 -6.95736e-07 0.00877981
0.00121578 0.00121957 0.0100001
0.008779 0.00998226 0.00877959
0.0012192 0.00877947 0.00999995
0 0.00877992 0.00877992
0.00999349 0.00875872 0.00877948
0.00666779 0.00998801 5.68034e-07
0.00996936 0.00119736 0.00122175
0.00122009 0.00999953 0.00878014
0.00877537 0.00876255 0.0099994
0.00998165 0.00497898 0.00999937
0 0 0.00333333
0.00663944 -1.31423e-05 1.55239e-06
0.00874763 -1.93244e-05 0.00122184
0.00120626 -7.01306e-07 0.00121206
0 0.00877992 0.00122008
0.00121957 0.00877945 1.21174e-07
0.00121175 0.00999956 0.00121151
0.00996982 0.00119776 0.00877952
0.00875182 0.00120146 0.00999936
0.00663984 -1.27948e-05 0.00999922
0.0087513 0.00120105 1.60937e-06
0.00874807 -1.89861e-05 0.0087794
0.00997594 0.00331132 1.56857e-06
0.00333476 0.00999615 0.01
0.00246043 0.00999811 0.0013565
0.00666787 0.00998854 0.00999966
0.00997644 0.00331198 0.00999937
0 0.01 0.005
0.00262315 0.00848488 3.17978e-07
0.00999701 0.00997826 0.00500033
0 0.01 0.00333333
0 0.00166667 0
0.0099657 -2.30348e-05 0.00166839
0 0.00166667 0.01
0 0.00833333 0
0.00999163 0.00831162 1.08518e-06
0.00996612 -2.2728e-05 0.00833297
0.00999688 0.00997796 0.00166761
0.00999725 0.00997841 0.008333
0.00166742 0.00999872 0.01
0 0.01 0.00833333
0.00833271 0.00998306 8.02574e-07
0.00830205 -1.81546e-05 1.68793e-06
0.00830257 -1.7816e-05 0.00999921
0.00833301 0.00998352 0.00999948
0 0 0.00833333
0.0099922 0.00831223 0.00999934
0.0016586 -1.71938e-06 2.95722e-07
0 0 0.00166667
0.0033357 0.00999629 3.36036e-07
0.00997129 0.00164442 0.00999933
0.00997075 0.00164398 1.66151e-06
0.00165896 -1.44107e-06 0.0100001
0.00166776 0.00999896 1.53441e-07
0 0.01 0.00166667
0.00999744 0.00997841 0.0099994
0 0 0.01
0.00999687 0.00997781 8.96821e-07
0.00996619 -2.28253e-05 0.00999915
0 0.01 0.01
0.00996562 -2.31888e-05 1.83257e-06
0 0.01 0
0 0 0
0.00500205 0.00999238 4.52988e-07
0.00331814 -4.49041e-06 0.00999962
0 0.00833333 0.01

CELLS 343 686
1 0
1 1
1 2
1 3
1 4
1 5
1 6
1 7
1 8
1 9
1 10
1 11
1 12
1 13
1 14
1 15
1 16
1 17
1 18
1 19
1 20
1 21
1 22
1 23
1 24
1 25
1 26
1 27
1 28
1 29
1 30
1 31
1 32
1 33
1 34
1 35
1 36
1 37
1 38
1 39
1 40
1 41
1 42
1 43
1 44
1 45
1 46
1 47
1 48
1 49
1 50
1 51
1 52
1 53
1 54
1 55
1 56
1 57
1 58
1 59
1 60
1 61
1 62
1 63
1 64
1 65
1 66
1 67
1 68
1 69
1 70
1 71
1 72
1 73
1 74
1 75
1 76
1 77
1 78
1 79
1 80
1 81
1 82
1 83
1 84
1 85
1 86
1 87
1 88
1 89
1 90
1 91
1 92
1 93
1 94
1 95
1 96
1 97
1 98
1 99
1 100
1 101
1 102
1 103
1 104
1 105
1 106
1 107
1 108
1 109
1 110
1 111
1 112
1 113
1 114
1 115
1 116
1 117
1 118
1 119
1 120
1 121
1 122
1 123
1 124
1 125
1 126
1 127
1 128
1 129
1 130
1 131
1 132
1 133
1 134
1 135
1 136
1 137
1 138
1 139
1 140
1 141
1 142
1 143
1 144
1 145
1 146
1 147
1 148
1 149
1 150
1 151
1 152
1 153
1 154
1 155
1 156
1 157
1 158
1 159
1 160
1 161
1 162
1 163
1 164
1 165
1 166
1 167
1 168
1 169
1 170
1 171
1 172
1 173
1 174
1 175
1 176
1 177
1 178
1 179
1 180
1 181
1 182
1 183
1 184
1 185
1 186
1 187
1 188
1 189
1 190
1 191
1 192
1 193
1 194
1 195
1 196
1 197
1 198
1 199
1 200
1 201
1 202
1 203
1 204
1 205
1 206
1 207
1 208
1 209
1 210
1 211
1 212
1 213
1 214
1 215
1 216
1 217
1 218
1 219
1 220
1 221
1 222
1 223
1 224
1 225
1 226
1 227
1 228
1 229
1 230
1 231
1 232
1 233
1 234
1 235
1 236
1 237
1 238
1 239
1 240
1 241
1 242
1 243
1 244
1 245
1 246
1 247
1 248
1 249
1 250
1 251
1 252
1 253
1 254
1 255
1 256
1 257
1 258
1 259
1 260
1 261
1 262
1 263
1 264
1 265
1 266
1 267
1 268
1 269
1 270
1 271
1 272
1 273
1 274
1 275
1 276
1 277
1 278
1 279
1 280
1 281
1 282
1 283
1 284
1 285
1 286
1 287
1 288
1 289
1 290
1 291
1 292
1 293
1 294
1 295
1 296
1 297
1 298
1 299
1 300
1 301
1 302
1 303
1 304
1 305
1 306
1 307
1 308
1 309
1 310
1 311
1 312
1 313
1 314
1 315
1 316
1 317
1 318
1 319
1 320
1 321
1 322
1 323
1 324
1 325
1 326
1 327
1 328
1 329
1 330
1 331
1 332
1 333
1 334
1 335
1 336
1 337
1 338
1 339
1 340
1 341
1 342

CELL_TYPES 343
1
1
1
1
1
1
1
1
1
1
1
1
1
1
1
1
1
1
1
1
1
1
1
1
1
1
1
1
1
1
1
1
1
1
1
1
1
1
1
1
1
1
1
1
1
1
1
1
1
1
1
1
1
1
1
1
1
1
1
1
1
1
1
1
1
1
1
1
1
1
1
1
1
1
1
1
1
1
1
1
1
1
1
1
1
1
1
1
1
1
1
1
1
1
1
1
1
1
1
1
1
1
1
1
1
1
1
1
1
1
1
1
1
1
1
1
1
1
1
1
1
1
1
1
1
1
1
1
1
1
1
1
1
1
1
1
1
1
1
1
1
1
1
1
1
1
1
1
1
1
1
1
1
1
1
1
1
1
1
1
1
1
1
1
1
1
1
1
1
1
1
1
1
1
1
1
1
1
1
1
1
1
1
1
1
1
1
1
1
1
1
1
1
1
1
1
1
1
1
1
1
1
1
1
1
1
1
1
1
1
1
1
1
1
1
1
1
1
1
1
1
1
1
1
1
1
1
1
1
1
1
1
1
1
1
1
1
1
1
1
1
1
1
1
1
1
1
1
1
1
1
1
1
1
1
1
1
1
1
1
1
1
1
1
1
1
1
1
1
1
1
1
1
1
1
1
1
1
1
1
1
1
1
1
1
1
1
1
1
1
1
1
1
1
1
1
1
1
1
1
1
1
1
1
1
1
1
1
1
1
1
1
1
1
1
1
1
1
1
1
1
1
1
1
1
1
1
1
1
1
1
1
1
1
1
1
1
1
1
1
1
1
1

POINT_DATA 343
FIELD FieldData 8

NodeID_(#) 1 343 int
0
1
2
3
4
5
6
7
8
9
10
11
12
13
14
15
16
17
18
19
20
21
22
23
24
25
26
27
28
29
30
31
32
33
34
35
36
37
38
39
40
41
42
43
44
45
46
47
48
49
50
51
52
53
54
55
56
57
58
59
60
61
62
63
64
65
66
67
68
69
70
71
72
73
74
75
76
77
78
79
80
81
82
83
84
85
86
87
88
89
90
91
92
93
94
95
96
97
98
99
100
101
102
103
104
105
106
107
108
109
110
111
112
113
114
115
116
117
118
119
120
121
122
123
124
125
126
127
128
129
130
131
132
133
134
135
136
137
138
139
140
141
142
143
144
145
146
147
148
149
150
151
152
153
154
155
156
157
158
159
160
161
162
163
164
165
166
167
168
169
170
171
172
173
174
175
176
177
178
179
180
181
182
183
184
185
186
187
188
189
190
191
192
193
194
195
196
197
198
199
200
201
202
203
204
205
206
207
208
209
210
211
212
213
214
215
216
217
218
219
220
221
222
223
224
225
226
227
228
229
230
231
232
233
234
235
236
237
238
239
240
241
242
243
244
245
246
247
248
249
250
251
252
253
254
255
256
257
258
259
260
261
262
263
264
265
266
267
268
269
270
271
272
273
274
275
276
277
278
279
280
281
282
283
284
285
286
287
288
289
290
291
292
293
294
295
296
297
298
299
300
301
302
303
304
305
306
307
308
309
310
311
312
313
314
315
316
317
318
319
320
321
322
323
324
325
326
327
328
329
330
331
332
333
334
335
336
337
338
339
340
341
342

Component_(#) 1 343 int
0
0
0
0
0
0
0
0
0
0
0
0
0
0
0
0
0
0
0
0
0
0
0
0
0
0
0
0
0
0
0
0
0
0
0
0
0
0
0
0
0
0
0
0
0
0
0
0
0
0
0
0
0
0
0
0
0
0
0
0
0
0
0
0
0
0
0
0
0
0
0
0
0
0
0
0
0
0
0
0
0
0
0
0
0
0
0
0
0
0
0
0
0
0
0
0
0
0
0
0
0
0
0
0
0
0
0
0
0
0
0
0
0
0
0
0
0
0
0
0
0
0
0
0
0
0
0
0
0
0
0
0
0
0
0
0
0
0
0
0
0
0
0
0
0
0
0
0
0
0
0
0
0
0
0
0
0
0
0
0
0
0
0
0
0
0
0
0
0
0
0
0
0
0
0
0
0
0
0
0
0
0
0
0
0
0
0
0
0
0
0
0
0
0
0
0
0
0
0
0
0
0
0
0
0
0
0
0
0
0
0
0
0
0
0
0
0
0
0
0
0
0
0
0
0
0
0
0
0
0
0
0
0
0
0
0
0
0
0
0
0
0
0
0
0
0
0
0
0
0
0
0
0
0
0
0
0
0
0
0
0
0
0
0
0
0
0
0
0
0
0
0
0
0
0
0
0
0
0
0
0
0
0
0
0
0
0
0
0
0
0
0
0
0
0
0
0
0
0
0
0
0
0
0
0
0
0
0
0
0
0
0
0
0
0
0
0
0
0
0
0
0
0
0
0
0
0
0
0
0
0
0
0
0
0
0
0
0
0
0
0
0
0

NodalMass_(kg) 1 343 double
3.15563e-06
1.41304e-05
2.20912e-06
1.71484e-05
8.42e-06
9.09306e-06
9.93033e-06
7.52198e-06
6.81096e-06
5.58223e-06
3.10888e-06
1.07575e-05
4.87011e-06
1.64955e-05
3.0246e-06
8.05984e-06
6.703e-06
1.0877e-05
4.18978e-06
8.16106e-06
6.14143e-06
1.17902e-05
2.23114e-06
4.25176e-06
1.09915e-05
7.41467e-06
4.21871e-06
3.92484e-06
3.08766e-06
1.31268e-05
7.72627e-06
1.65404e-05
1.19037e-05
7.29666e-06
3.81683e-06
1.11001e-05
3.81317e-06
1.39137e-05
6.37414e-06
8.00975e-06
7.6712e-06
1.18847e-05
1.6399e-05
2.78633e-06
8.93599e-06
2.58087e-06
7.57362e-06
4.23241e-06
1.31286e-05
3.80168e-06
2.7746e-06
7.16776e-06
1.21307e-05
5.11765e-06
8.19728e-06
4.58094e-06
2.79503e-06
3.26126e-06
4.12443e-06
2.11915e-06
3.35177e-06
3.61669e-06
1.56838e-05
7.33679e-06
8.24695e-06
5.00369e-06
2.82625e-06
7.20276e-06
3.26815e-06
4.18751e-06
2.02785e-06
2.42152e-06
3.11835e-06
5.97459e-06
5.87101e-06
4.09374e-06
5.45463e-06
2.28825e-06
4.49759e-06
4.38192e-06
4.50892e-06
4.39234e-06
4.27273e-06
5.32031e-06
1.53201e-06
2.38869e-06
2.02885e-06
4.38798e-06
3.17972e-06
3.14298e-06
4.61567e-06
5.87645e-06
8.18088e-06
2.48341e-06
1.53815e-05
3.49683e-06
7.35227e-06
2.01314e-06
2.0408e-06
7.98183e-06
4.41293e-06
7.1389e-06
1.20123e-06
5.03343e-06
1.61257e-06
4.12601e-06
8.73748e-06
4.37849e-06
7.97173e-06
2.13557e-06
3.38137e-06
9.48623e-06
7.40262e-06
1.80226e-06
2.10222e-06
7.98889e-06
1.87983e-06
7.44814e-06
4.19782e-06
2.37156e-06
4.31705e-06
6.06441e-06
4.30905e-06
2.16843e-06
1.8986e-06
1.81294e-06
3.89762e-06
2.44299e-06
1.65628e-06
8.01374e-06
1.64513e-06
2.3931e-06
3.01363e-06
2.99431e-06
1.36541e-06
1.87293e-06
2.09622e-06
1.94762e-06
1.87618e-06
6.37913e-06
4.58628e-06
2.02767e-06
1.61999e-06
2.41284e-06
3.8865e-06
4.44973e-06
2.29839e-06
1.17349e-05
3.11811e-06
1.354e-06
3.45063e-06
1.81846e-06
2.9382e-06
1.37381e-06
2.41464e-06
2.10451e-06
2.63927e-06
2.14166e-06
1.7943e-06
3.19976e-06
1.36989e-06
2.43489e-06
2.08158e-06
1.3601e-06
2.17203e-06
1.89924e-06
3.16996e-06
2.6119e-06
2.37677e-06
1.60225e-06
1.90684e-06
5.49206e-06
1.87878e-06
3.14313e-06
2.97301e-06
1.18454e-06
1.89263e-06
2.04166e-06
2.73572e-06
2.42405e-06
3.23083e-06
3.19752e-06
3.2142e-06
1.94492e-06
1.61196e-06
1.86876e-06
3.22435e-06
2.1114e-06
2.96917e-06
6.15288e-06
2.3097e-06
2.39729e-06
2.38029e-06
2.64508e-06
1.66557e-06
1.82377e-06
2.06583e-06
5.73271e-06
2.08467e-06
2.18324e-06
2.43522e-06
3.1188e-06
3.17316e-06
2.05447e-06
1.9592e-06
3.05718e-06
6.44327e-06
2.08796e-06
2.72615e-06
2.15709e-06
1.86812e-06
2.0028e-06
2.10999e-06
2.88994e-06
2.3222e-06
2.3979e-06
1.97629e-06
6.4127e-06
2.16225e-06
3.29198e-06
2.10223e-06
2.66566e-06
1.94415e-06
2.91865e-06
2.58116e-06
2.11703e-06
2.09534e-06
1.91719e-06
7.06046e-06
2.25203e-06
2.06378e-06
6.28159e-06
2.12147e-06
2.90924e-06
2.12921e-06
6.4487e-06
1.41701e-06
2.0682e-06
6.58062e-06
2.52584e-06
2.39732e-06
7.42191e-07
2.22368e-06
7.06751e-07
7.00657e-07
8.93749e-07
2.53536e-06
2.26535e-06
1.33607e-06
7.84725e-07
2.32303e-06
6.06694e-07
6.68276e-07
6.84307e-07
2.51242e-06
2.31629e-06
7.8367e-07
6.80839e-07
6.22692e-06
6.7471e-07
6.65305e-07
7.01158e-07
1.8232e-06
1.90695e-06
6.86722e-07
7.04792e-07
1.86445e-06
2.28572e-06
6.8045e-07
7.16005e-07
1.82373e-06
6.01079e-07
2.02791e-06
7.4579e-07
5.74423e-07
1.80052e-06
1.454e-06
2.2702e-06
1.80636e-06
2.15356e-06
1.79089e-06
1.79456e-06
6.8231e-07
2.24737e-06
1.45239e-06
1.79556e-06
6.97875e-07
6.24265e-07
6.62717e-07
1.44627e-06
1.40138e-06
2.15258e-06
1.82851e-06
1.3994e-06
1.43932e-06
2.19226e-06
6.97732e-07
1.77726e-06
1.79162e-06
6.54258e-07
7.3397e-07
2.34895e-06
7.10392e-07
6.56982e-07
6.26314e-07
2.18926e-06
6.12493e-07
6.03901e-07
5.92831e-07
5.12031e-07
5.11667e-07
4.9467e-07
4.97016e-07
4.96269e-07
5.33079e-07
4.94191e-07
4.97855e-07
4.86862e-07
4.90626e-07
4.94649e-07
4.94954e-07
4.91922e-07
4.89615e-07
4.96354e-07
4.95189e-07
4.82188e-07
1.10854e-06
5.3299e-07
5.44763e-07
5.36655e-07
5.15417e-07
5.01772e-07
5.53774e-07
5.53774e-07
5.53774e-07
5.53774e-07
5.53774e-07
5.53774e-07
5.50785e-07
5.50785e-07
7.45291e-07
7.11668e-07
4.9897e-07

NodalForce_(N) 3 343 double
-3.131e-07 -4.23214e-08 7.79652e-09
-1.85455e-06 -3.83608e-07 -2.82616e-07
0.000342813 0.000310171 0.00035443
-3.73664e-06 -7.10758e-07 -1.49246e-07
-4.58804e-06 -3.65301e-06 -1.79072e-06
-1.36687e-06 -2.84566e-06 -2.42227e-06
-1.53077e-06 -7.71362e-06 -5.06236e-06
-2.07595e-06 -3.62363e-06 -2.27102e-06
-1.57308e-06 -4.6267e-06 -3.237e-06
-5.54049e-07 -1.41174e-06 -1.14982e-06
-3.95842e-07 -1.15605e-06 -7.45895e-07
-3.10182e-06 -5.08546e-06 -3.57905e-06
-2.31582e-06 -2.10564e-06 -1.17039e-06
-6.29206e-07 -4.50054e-07 -3.07216e-07
2.07303e-07 -8.07829e-07 -7.45709e-07
3.72102e-06 -4.41838e-06 -4.05338e-06
1.08426e-06 -3.08659e-06 -2.4964e-06
-1.6313e-06 -5.12495e-07 -4.34869e-07
-0.00114237 0.000552743 -0.000181074
-7.40664e-07 -1.09e-07 -1.49983e-07
-4.34291e-06 -4.42455e-06 -2.11371e-06
-8.69643e-06 -1.16173e-05 -6.18185e-06
-0.000450925 -0.00141012 -0.000669372
-3.71121e-06 -1.7718e-06 -3.72256e-07
-8.85086e-06 -5.1202e-06 -1.6719e-06
-3.26558e-06 -1.37636e-06 -7.26233e-07
-8.30905e-07 -1.55189e-07 -4.82192e-08
-3.97404e-06 -1.91667e-06 -3.34642e-07
-5.88877e-07 -1.6272e-07 -8.46188e-08
-5.88534e-07 -3.35515e-07 -1.86453e-07
-1.44798e-06 -9.93762e-07 -8.45122e-07
1.68032e-05 -1.28254e-05 -1.13392e-05
3.16347e-06 -9.85275e-06 -8.02834e-06
2.22322e-06 -6.58297e-06 -4.75936e-06
3.17849e-06 -5.10103e-06 -3.06894e-06
5.7417e-06 -7.8308e-06 -5.68834e-06
3.90811e-06 -4.05926e-06 -2.42107e-06
3.60032e-06 -1.15197e-05 -6.61786e-06
-7.97972e-07 -8.72032e-07 -7.84529e-07
3.23843e-07 -1.63414e-06 -1.94966e-06
-3.38395e-06 -2.24034e-06 -9.09997e-07
6.35051e-06 -3.08344e-06 -3.52592e-06
2.15382e-06 -2.21467e-07 -6.48579e-07
1.06414e-06 -3.42876e-07 -2.50753e-07
2.74204e-06 -1.55963e-06 -1.30278e-06
0.000863113 0.000673624 -0.000339389
-2.36943e-07 -1.15771e-07 -1.14548e-07
-0.000283003 0.000840087 -2.31854e-05
9.13701e-07 -3.98544e-07 -6.53043e-07
3.08719e-07 -4.98593e-08 -5.20173e-08
2.77199e-06 -1.65161e-06 -1.72848e-06
3.49913e-06 -2.85872e-06 -3.22022e-06
2.3779e-07 -2.43775e-07 -3.70565e-07
5.09469e-07 -2.46553e-07 -4.32033e-07
1.60607e-07 -1.00474e-07 -1.71679e-07
2.80155e-06 -5.93742e-06 -4.4174e-06
0.000731363 0.000486697 0.000609988
-3.73976e-07 -5.98881e-08 -1.91036e-08
-4.09987e-05 -6.33125e-05 -0.000270385
1.69e-06 -2.72844e-06 -1.94725e-06
6.99625e-07 -2.46825e-07 -3.39984e-07
-3.79453e-06 -5.88502e-06 -2.79121e-06
-1.884e-05 -1.74094e-05 -6.75985e-06
-4.19215e-06 -7.64519e-06 -4.15192e-06
-4.45134e-06 -2.29758e-06 -7.19367e-07
5.40209e-07 -7.22171e-08 -1.07778e-07
-1.28526e-06 -6.04756e-07 -1.80038e-07
1.00509e-06 -3.24882e-06 -3.21315e-06
1.42235e-06 -4.28082e-06 -2.59256e-06
-5.95471e-06 -5.8066e-06 -2.40316e-06
-9.98224e-07 -3.28298e-07 -1.14277e-07
9.89877e-08 -3.17111e-07 -2.30752e-07
-2.00518e-06 -7.83987e-07 -1.40692e-07
9.15522e-07 -1.29693e-06 -1.60836e-06
-1.64277e-06 -5.56172e-07 -3.86169e-07
0.00131962 0.000453502 0.000268245
-2.22092e-06 -1.62444e-06 -9.40404e-07
-3.90353e-07 -2.38493e-08 -1.63771e-08
4.6053e-06 -1.75665e-06 -2.03605e-06
5.06538e-06 -2.2161e-06 -1.98744e-06
3.28247e-06 -1.21377e-06 -1.08706e-06
3.01725e-06 -8.41384e-07 -1.06256e-06
4.0667e-06 -5.55606e-06 -3.72977e-06
-3.22756e-07 -3.47036e-07 -3.39158e-07
8.94383e-05 -0.000979822 0.000343397
-1.62938e-07 -1.47056e-08 -1.86945e-09
7.78157e-05 -0.000647361 0.000373488
-0.000821323 -0.000343823 6.00064e-05
-0.000274931 0.000181314 -0.000129464
-8.2987e-07 -1.92669e-07 -9.07143e-08
5.49359e-07 -2.95531e-08 -6.0308e-08
1.4996e-06 -1.53884e-06 -1.58737e-06
2.26251e-06 -5.83588e-07 -1.40566e-06
2.0915e-08 -1.83055e-06 -1.39133e-06
-6.46271e-06 -1.59384e-05 -1.03615e-05
-4.95195e-06 -3.60138e-06 -1.14037e-06
-6.66293e-06 -4.94602e-06 -1.85345e-06
-1.58925e-06 -3.0256e-06 -1.48432e-06
-8.00486e-05 6.72462e-05 2.45246e-05
5.21227e-06 -3.93517e-06 -3.34395e-06
-5.53716e-06 -3.14732e-06 -8.06145e-07
-5.27279e-06 -3.90113e-06 -1.70206e-06
4.1693e-07 -1.85103e-07 -1.1494e-07
6.2097e-06 -5.25799e-06 -3.48422e-06
-8.05945e-07 -2.73642e-07 -5.07336e-08
-5.88419e-06 -3.39162e-06 -8.32414e-07
3.02713e-06 -4.38144e-06 -2.7668e-06
-5.24044e-06 -5.96699e-06 -2.84013e-06
-4.75841e-06 -5.41259e-06 -3.05775e-06
7.19855e-08 -1.29343e-08 -2.49499e-08
-4.88348e-07 -2.20511e-06 -1.14873e-06
4.08361e-07 -3.02401e-06 -1.85269e-06
-1.75186e-06 -2.83867e-06 -1.81548e-06
-0.000702623 -0.000319441 -0.000720401
-2.65702e-06 -3.48482e-06 -1.46969e-06
-1.98575e-07 -1.43869e-07 -1.811e-07
1.03413e-06 -2.51657e-06 -1.40541e-06
6.66055e-07 -6.83674e-06 -4.31534e-06
1.7898e-06 -2.39832e-06 -1.19655e-06
-2.25568e-06 -2.339e-06 -1.16346e-06
-3.59673e-06 -6.92702e-06 -3.66366e-06
-1.78161e-06 -6.20669e-06 -3.9484e-06
-7.03349e-07 -1.81925e-07 -6.32663e-08
8.98757e-05 4.99853e-05 0.000132848
-2.06393e-07 -6.10699e-08 -1.56779e-08
9.77412e-07 -2.3568e-06 -1.57203e-06
8.43226e-08 -1.84753e-06 -8.96536e-07
-8.21579e-05 -0.0006744 -0.00037053
2.1478e-07 1.56983e-08 -3.68692e-08
1.1829e-06 -1.7188e-06 -1.05258e-06
2.40583e-06 -1.72432e-06 -1.25039e-06
2.92859e-06 -3.08113e-06 -2.27807e-06
-4.63532e-07 -1.82217e-06 -1.25291e-06
1.04754e-06 -2.03228e-06 -1.82502e-06
0.000603483 -0.00100201 -6.45897e-05
2.40818e-07 -3.83263e-08 -1.33947e-08
7.3233e-05 3.52335e-05 -0.000151867
-3.19745e-06 -2.79905e-06 -9.52665e-07
2.93595e-07 -2.49011e-06 -1.38553e-06
-7.10848e-07 -6.05977e-06 -3.35472e-06
3.62953e-06 -4.17648e-06 -3.60191e-06
-5.31238e-07 -1.97516e-06 -1.29798e-06
-1.59176e-06 -2.22415e-06 -1.19018e-06
-1.53436e-06 -3.85445e-06 -2.19978e-06
-0.000945778 0.000218063 4.53326e-05
-2.92623e-06 -3.33175e-06 -1.90902e-06
-2.17001e-06 -1.11388e-06 -2.39277e-07
-6.23572e-06 -1.0366e-05 -5.26601e-06
-1.65721e-06 -4.38938e-06 -2.24112e-06
8.43618e-07 -3.92751e-07 -2.74037e-07
6.78127e-07 -4.2589e-07 -2.25383e-07
-4.03177e-07 -8.0165e-08 1.24772e-08
-0.000252205 -0.000691922 -2.80816e-05
5.13262e-07 -1.80005e-06 -1.23904e-06
1.7046e-06 -1.80698e-06 -9.63032e-07
2.78415e-06 -1.48642e-06 -1.4108e-06
0.000437363 -0.000798555 0.000220997
-0.00122404 7.13338e-05 0.000486114
1.23816e-06 -9.5905e-07 -1.01432e-06
-9.08924e-07 -4.66604e-06 -2.89734e-06
-9.1589e-07 -6.24509e-07 -2.30942e-07
1.0377e-06 -2.68335e-07 -2.11111e-07
-3.04338e-06 -2.2412e-06 -6.79971e-07
1.00126e-06 -4.74929e-07 -6.1218e-07
2.35324e-06 -2.76152e-06 -2.13892e-06
2.3209e-06 -1.71513e-06 -1.54175e-06
-3.38979e-06 -2.49925e-06 -8.90781e-07
-7.38317e-07 -1.96884e-07 -1.40708e-07
3.72331e-07 -1.88192e-06 -9.494e-07
9.31198e-07 -1.423e-06 -7.1045e-07
-4.5237e-07 -7.52434e-07 -4.24415e-07
-8.49424e-08 -3.21632e-06 -2.03297e-06
-3.13029e-06 -2.2622e-06 -6.29865e-07
9.05756e-07 -9.97654e-08 -3.7585e-07
1.329e-06 -4.0833e-07 -8.2053e-07
3.19976e-07 -1.87773e-07 -3.18061e-07
2.74339e-06 -1.55559e-06 -1.2342e-06
-5.64636e-07 -3.51553e-07 -1.26921e-07
-1.97197e-07 -3.65949e-06 -2.05886e-06
0.000241385 -0.00062211 -0.000459033
5.65838e-07 -4.43487e-06 -3.08871e-06
-2.98015e-06 -3.49198e-06 -1.42379e-06
-3.37914e-06 -4.9475e-06 -2.13376e-06
0.000208599 -0.000737655 0.000336677
6.36097e-07 -9.95788e-08 -1.75584e-07
-1.44257e-06 -2.08387e-06 -1.18806e-06
1.3055e-08 -3.47512e-06 -2.49829e-06
8.35292e-07 -2.2452e-06 -1.7465e-06
2.28522e-06 -1.45403e-06 -9.83942e-07
1.67771e-06 -1.83511e-06 -1.46916e-06
1.38641e-06 -1.15113e-06 -6.37842e-07
2.76151e-06 -1.70967e-06 -1.26193e-06
9.01402e-07 -8.9279e-08 -3.55523e-07
-1.26208e-06 -4.84521e-07 -2.47439e-07
-9.36255e-07 -4.10507e-07 -7.20142e-08
-1.05039e-06 -5.08707e-07 -1.04962e-07
-1.50213e-06 -2.9793e-06 -1.35466e-06
3.81599e-08 -1.00893e-06 -5.52316e-07
-6.56131e-07 -2.90017e-06 -1.62907e-06
-1.01535e-06 -1.24108e-06 -5.98131e-07
2.02423e-06 -2.67524e-06 -1.43968e-06
0.00037999 -0.000446582 0.000138206
1.71227e-07 -4.19064e-08 -6.31846e-08
4.7989e-05 0.000369629 0.000163032
-5.08222e-09 -5.42762e-07 -2.37328e-07
7.88485e-07 -9.38999e-07 -4.39616e-07
-2.27962e-06 -1.69419e-06 -1.11112e-06
-1.57893e-06 -1.56515e-06 -6.62749e-07
-3.00164e-06 -2.02222e-06 -5.95604e-07
-1.98302e-06 -1.57115e-06 -6.36527e-07
4.57906e-08 -2.52728e-08 -1.59408e-08
-2.63309e-06 -2.44964e-06 -8.71741e-07
2.81011e-07 -2.86851e-06 -1.94051e-06
2.75783e-06 -2.18994e-06 -1.38066e-06
4.18547e-07 -9.91112e-07 -9.67232e-07
-1.48497e-06 -5.07991e-07 -3.43608e-08
-4.40622e-07 -2.96249e-06 -1.86174e-06
-3.26222e-07 -2.5318e-07 -2.83396e-07
-1.5071e-06 -1.00445e-06 -4.39894e-07
-1.58024e-06 -3.1609e-06 -1.48044e-06
1.875e-06 -9.30205e-07 -7.11401e-07
-2.6854e-07 -3.67619e-06 -2.28723e-06
8.81327e-07 -9.1782e-07 -4.75983e-07
-3.49678e-06 -3.02594e-06 -1.24908e-06
6.43732e-07 -3.11624e-07 -1.6214e-07
-0.000664154 -0.000183904 0.000238869
1.35918e-06 -3.78381e-07 -6.21672e-07
-1.42454e-06 -1.28359e-06 -6.28159e-07
-1.0995e-06 -7.2973e-07 -6.2504e-07
1.11725e-06 -6.70253e-07 -3.69751e-07
-1.73269e-06 -9.88534e-07 -2.38566e-07
-1.80367e-09 -6.27263e-07 -7.43137e-07
0.000676342 -0.000755118 5.69095e-06
-0.000288208 -7.86076e-05 0.000152526
-8.23545e-07 -5.31779e-07 -3.14076e-07
-2.87626e-07 -1.50764e-06 -1.14118e-06
-1.69957e-06 -1.00346e-06 -2.48793e-07
2.9642e-07 -2.7327e-06 -1.7082e-06
3.85658e-08 -6.3153e-07 -6.72279e-07
1.18143e-06 -8.40142e-07 -1.08998e-06
-6.62989e-07 -3.25709e-06 -1.64406e-06
0.000361364 -3.60223e-05 0.000265105
-1.35008e-07 -2.20854e-06 -1.11583e-06
-6.2942e-07 -2.79784e-07 -3.80259e-09
0.000510547 -0.000454839 -1.29475e-08
9.72659e-07 -3.53034e-07 -2.99271e-07
0.000879001 -0.000272082 -0.000183447
3.30496e-07 -3.02008e-06 -1.55653e-06
-2.98692e-07 -1.80144e-06 -8.67362e-07
5.42038e-05 -0.000313983 4.84118e-05
-1.94405e-06 -9.68097e-07 -3.29717e-07
-0.000220568 -0.000263972 -0.000220066
-1.03909e-06 -1.20882e-06 -4.8003e-07
1.00213e-06 -9.64441e-07 -6.35645e-07
-4.57471e-07 -4.67901e-07 -2.80082e-07
-1.3489e-06 -3.43596e-06 -1.89378e-06
-1.03704e-06 -5.49296e-07 -6.4947e-08
-0.000573539 -0.000581835 -7.35042e-05
-1.27562e-06 -8.62324e-07 -6.78677e-07
-2.66156e-07 -4.18782e-07 -2.48555e-07
-7.4648e-07 -1.17567e-06 -5.84478e-07
-0.000495164 -0.000455895 -9.08698e-06
1.28175e-06 -2.12319e-06 -1.05994e-06
8.77348e-07 -2.63439e-06 -1.34142e-06
-9.24288e-07 -1.22567e-06 -5.51936e-07
-4.55136e-07 -1.00237e-06 -4.41777e-07
-3.15012e-07 -6.39781e-08 -8.07617e-09
6.68173e-05 0.000559812 -0.000257216
-0.000137903 9.20633e-05 0.000105165
-1.05814e-05 -0.000236454 8.8362e-05
4.8561e-07 -2.00443e-06 -9.93316e-07
6.22673e-07 -8.73195e-07 -4.77552e-07
7.62917e-07 -6.11773e-07 -2.89502e-07
7.76132e-07 -9.43745e-07 -7.30065e-07
3.35546e-05 -0.000191741 9.59094e-05
-3.66161e-05 0.000389055 0.000129865