# vtk DataFile Version 4.2
vtk output
ASCII
DATASET UNSTRUCTURED_GRID

POINTS 343 double
0.00112144 0.004195 8.58172e-08
0.00216904 0.00498284 0.00217517
0 0.00419538 0.00112517
0.00192929 0.00195475 0.00194201
0.0051698 0.00240981 0.0050305
0.00517202 0.00383262 0.00639559
0.00761914 0.00478111 0.00499466
0.00622028 0.00485417 0.00368915
0.00683711 0.00329345 0.00691027
0.00498843 0.00499481 0.00499822
0.00418492 0.00112046 0.0099973
0.0052841 0.0020835 0.00790168
0.00419483 -4.97792e-06 0.00831559
0.00201294 0.00200274 0.00803302
0.00428947 0.00253493 0.00999723
0.00695302 0.00645131 0.00694311
0.00640899 0.00618628 0.00518015
0.00226042 0.00218503 0.00514588
0 0.00143586 0.00417514
0.00159387 0.00346625 0.00403701
0.00683431 0.00319887 0.00315824
0.00774577 0.00221945 0.00505944
0 0.00270918 0.00154168
0.00415615 0.00143088 -1.04578e-06
0.00500622 0.00219082 0.00219602
0.00395943 0.00352824 0.00160186
0.00134573 -5.31535e-07 0.00405992
0.00418376 -5.43822e-06 0.00168685
0.00262176 0.00695215 -2.78226e-07
0.00193549 0.00805289 0.00194474
0.00408232 0.00624932 0.00164383
0.0079978 0.00799198 0.00799195
0.00796463 0.00482168 0.008017
0.00838354 0.00608621 0.00594253
0.0099872 0.00883446 0.00418483
0.00756903 0.00764108 0.00495948
0.00855401 0.00998688 0.00416119
0.00796461 0.00797711 0.00201138
0.00353638 0.00303772 0.00695869
0.00443865 0.00366373 0.00832216
0.00389379 0.00160236 0.00596813
0.00500212 0.00767065 0.00767453
0.00198829 0.00800816 0.0079895
0.00282366 0.00999801 0.00712681
0.00391214 0.00840097 0.00595692
0 0.00695361 0.00262895
0.00164506 0.00623947 0.0040878
0 0.0040177 0.00850214
0.00231428 0.00498603 0.00766124
0.00143335 0.00417462 0.00999989
0.00717343 0.00712288 0.00999316
0.006117 0.00597416 0.00841394
0.00204975 0.0079416 0.0047417
0.00304151 0.0069435 0.00646726
0.00158598 0.0060785 0.00592591
0.00998693 0.00579268 0.00830675
0 0.00718191 0.00711644
0.00158246 0.00577364 -1.80782e-08
0 0.00577432 0.00158701
0.00998815 0.00716632 0.00710637
0.00286915 0.00335007 0.00999882
0.00997008 0.00141871 0.00416682
0.00803352 0.00194969 0.00197426
0.0083863 0.003509 0.00399298
0.00372629 0.00164972 0.00412756
0.00150736 0.00999969 0.00581498
0.00281217 -2.49852e-06 0.00712721
0.00611098 0.00417501 0.00837244
0.00998349 0.00725835 0.00418711
0.00853119 -1.43945e-05 0.00416187
0.00333849 0.00287076 -6.02126e-07
0.00270308 0.00153974 0.0099989
0.00281961 -2.84997e-06 0.00283162
0.00479726 0.00519603 0.00755222
0.00315689 0.00314713 0.00316685
0 0.00849157 0.00581511
0.00486277 0.00367181 0.00378462
0.00153583 0.00270875 -2.79359e-09
0.00579742 0.00831929 0.00999507
0.00597889 0.00999283 0.00850146
0.00420981 0.00999588 0.00831562
0.00401616 0.00850008 0.00999735
0.00998905 0.00847574 0.00580561
0.00314399 0.0068342 0.00315035
0 0.00748929 0.00137438
0.00137122 0.00748897 3.13667e-08
0 0.00287343 0.00335182
0 0.00580816 0.00831736
0 0.00429792 0.00253898
0.00253025 0.00429644 -2.35693e-07
0.00143377 0.00581926 0.0099999
0.00517219 0.00647096 0.00639805
0.0036023 0.00651024 0.00823266
0.0069375 0.00261814 0.00999366
0.00800383 0.00194649 0.00802864
0.00694347 -1.0977e-05 0.00307826
0.00600068 0.00165659 0.0036101
0.009972 0.00285687 0.00334379
0 0.00140616 0.00256446
0.00636731 0.00822063 0.00641717
0.00579387 0.00142737 -2.15508e-06
0.00601784 0.00354478 0.00160039
0.00315246 0.00999755 0.0058245
0.00855139 0.00998706 0.00582608
0.00255252 0.00140396 -2.81246e-07
0.00595034 -8.86404e-06 0.00149168
0.00627138 0.00828056 0.00361411
0.0085286 -1.42521e-05 0.00582653
0.00618936 0.00166488 0.00636171
0.00140282 0.00256409 0.00999994
0.00709916 0.00717261 -3.98763e-06
0.00515691 0.00768484 0.00216683
0.00592857 0.00608703 0.00159907
0 0.00686719 0.00578184
0.00996743 0.00138882 0.0025568
0.00177192 0.00361007 0.0064077
0.00998388 0.00847081 0.00261549
0.00839628 0.00617723 0.00412669
0.00597012 0.00999233 0.00149084
0.00694776 -1.06279e-05 0.00692171
0.00997281 0.0014185 0.00581053
0.00837884 0.0035609 0.00605411
0.00150246 -6.18278e-07 0.00581512
0 0.0013659 0.00748679
0.00136444 -4.7203e-07 0.00752891
0.00998517 0.0068515 0.00577243
0.00580307 0.00848456 -2.72753e-06
0 0.0075208 0.00859127
0.00136478 0.00748657 0.00999979
0.00422483 0.00820204 0.00362718
0.00858697 0.00998701 0.00750412
0.00999229 0.00861449 0.00751601
0.00576132 0.00157954 0.00999526
0.00724862 0.00417867 0.00999315
0 0.0057735 0.00666667
0.00136883 0.00999962 0.00752888
0 0.00863025 0.00752641
0.00855522 -1.47058e-05 0.00250178
0.00998025 0.00693761 0.00262085
0.00844065 0.00632979 0.0021572
0.0085007 0.00581186 0.00999124
0.00747284 0.00136315 0.00999274
0.00856406 -1.43125e-05 0.00750436
0.00997539 0.00134899 0.00747673
0 0.00143551 0.00581971
0.00595918 -8.35892e-06 0.00850156
0.00419504 -5.3735e-06 0.0033988
0.0079131 0.00469647 0.00202958
0.00997395 0.0042818 0.00253117
0.00422582 0.00999575 0.00666486
0.00283106 0.00999809 0.00283151
0.00130708 -5.83054e-07 0.00241828
0 0.00727418 0.00419576
0.00998409 0.00575796 0.00665686
0.00696485 0.00999033 0.00307749
0.007505 0.00862703 0.0099926
0 0.00574334 0.00336387
0 0.0043297 0.00416652
0.00686281 0.00577597 0.00999368
0.00997822 0.00300592 0.00690547
0.00420996 -5.12862e-06 0.00666519
0.00247781 0.00999827 0.00861086
0.00745588 0.00135411 -3.89658e-06
0.00577017 0.00666073 0.00999506
0.00999141 0.00750528 0.00858048
0.00860333 0.00754141 0.009991
0.00688935 0.00301251 -3.3183e-06
0.00335366 0.00574123 -5.99906e-07
0.00751123 0.00861963 -4.6524e-06
0.00750413 0.00998889 0.00138254
0.00576688 0.00686078 -2.64433e-06
0.00696028 0.00636211 0.00302943
0.00748222 -1.24299e-05 0.00138355
0.00288122 0.0049978 0.00999869
0.00432639 0.00583018 0.00999696
0.00432361 0.00416323 0.00999699
0.00751483 0.0099894 0.00860901
0.00246776 -2.01283e-06 0.00861108
0.0099785 0.00572757 0.00335569
0 0.00302218 0.00691532
0.00998308 0.0040019 0.00849152
0.00847427 0.00400472 -5.21925e-06
0.0099688 0.00269236 0.00153438
0 0.00244495 0.00857025
0.00244512 0.0085689 0.00999885
0.00749292 -1.1858e-05 0.00860907
0.0084717 0.00261104 0.00999127
0.00883866 0.00418076 0.0099907
0.00566741 0.00999322 0.00583027
0.00517931 0.00757845 0.00503016
0.00563767 0.00999317 0.00421256
0.00696904 0.0099906 0.00692141
0.00302056 0.00691384 0.00999839
0.00415198 0.00432621 -1.10368e-06
0.002823 -2.87394e-06 0.00440428
0.00314008 -3.18665e-06 0.00582492
0.00997157 0.00417904 0.00111783
0.00363144 0.00833457 0.00158721
0.00997664 0.00431368 0.00415802
0.00664724 0.00576522 -3.26469e-06
0.00857815 0.00998662 0.00250082
0 0.00848692 0.00262374
0.00135023 0.00999971 0.00405985
0 0.00885053 0.00419359
0.00418557 0.00884627 -1.41116e-06
0.00419934 0.00999566 0.0016863
0.00498532 0.00478669 0.00237704
0.00719604 0.0045119 -3.73594e-06
0.00561868 -8.10367e-06 0.00421322
0.00564851 -8.01043e-06 0.00583067
0.00131145 0.00999973 0.00241808
0.00853868 0.00243124 -5.16171e-06
0.00998214 0.00450599 0.00720953
0.00710941 0.00999018 0.00499545
0.00573379 0.00335762 0.0099953
0.00244605 -2.3928e-06 0.00135633
0.00997959 0.00242854 0.00855967
0.00239038 0.0047902 0.0049996
0.00581326 0.00432336 -2.41339e-06
0.00829403 0.00579591 -5.28248e-06
0.00547794 0.00999369 0.0072171
0.00997939 0.00431424 0.005824
0.00539655 0.00999352 0.00277324
0.00708788 -1.10958e-05 0.00499603
0.00283416 0.00999809 0.00440399
0 0.00452174 0.00721958
0.00451949 0.0072164 0.00999674
0.00545941 -7.4785e-06 0.00721718
0.00359524 0.00507153 0.00359582
0.00424915 0.00999574 0.00500676
0.00423291 -5.28578e-06 0.00500735
0.00366457 0.00521451 0.00617362
0 0.005744 0.00499998
0 0.00433013 0.00583333
0.00498499 0.0057393 -1.79592e-06
0.00497493 0.0063346 0.00355202
0.00537799 -7.7282e-06 0.00277389
0.00998122 0.00572838 0.00499099
0.00368468 0.00640542 0.00484312
0.00573756 0.00499431 0.0099952
0.00997583 0.00575836 0.00157943
0 0.00666667 0
0.00857134 0.00750803 -5.85568e-06
0.00331573 -4.16911e-06 -2.71658e-07
0 0.01 0.00666667
0.00500286 0.00999441 0.00999623
0 0.00288419 0.00499914
0.00997959 0.00747315 0.00136669
0.00997569 0.00665058 -7.64881e-06
0 0.005 0.01
0.00497911 0.00287856 -1.65395e-06
0 0.005 0
0.00996542 -1.79118e-05 0.00332549
0.00999419 0.00998353 0.00665662
0.00418531 0.00727059 -1.33099e-06
0.00997469 0.00286778 0.0049903
0.00497492 -7.33254e-06 -1.2876e-06
0 0 0.00666667
0.00378952 0.00361397 0.00522544
0.00498561 -6.93615e-06 0.0099959
0.00997085 -1.77032e-05 0.00665709
0 0 0.005
0.00876722 0.00998597 0.00121371
0.00998243 0.00876348 0.00121223
0.0099681 -1.77949e-05 0.0049913
0.00997187 0.00498362 -7.39643e-06
0.00121493 0.00121949 -9.95555e-09
0 0.00122008 0.00122008
0 0.00333333 0.01
0 0.00666667 0.01
0.00876267 0.00876623 -6.25025e-06
0.00998871 0.00998318 0.0033247
0.00421112 0.00999572 0.0033984
0.00999177 0.00665126 0.00998876
0 0.00333333 0
0 0.00122008 0.00877992
0.00121576 -5.7467e-07 0.00877966
0.00121673 0.00121966 0.01
0.00877928 0.00998658 0.00877095
0.00121939 0.00877961 0.00999982
0 0.00877992 0.00877992
0.00999476 0.00876416 0.00876902
0.00665594 0.00999058 -3.97661e-06
0.00996487 0.00120251 0.00121298
0.0012198 0.00999955 0.00877986
0.00877851 0.00876709 0.00999071
0.00998789 0.00498447 0.00998879
0 0 0.00333333
0.00663522 -1.06165e-05 -2.77744e-06
0.00874418 -1.52793e-05 0.00121479
0.00120589 -6.94511e-07 0.00121185
0 0.00877992 0.00122008
0.00121773 0.00877945 5.33279e-08
0.00121001 0.00999961 0.00121138
0.00997714 0.00120305 0.00876915
0.00876101 0.00120581 0.0099907
0.00664882 -1.02659e-05 0.00999351
0.00874515 0.00120525 -5.30666e-06
0.00875628 -1.47896e-05 0.00877094
0.00996804 0.00331663 -7.17378e-06
0.00333563 0.00999703 0.00999825
0.00245619 0.00999849 0.00135596
0.00666951 0.00999132 0.00999393
0.00998402 0.00331737 0.00998881
0 0.01 0.005
0.0026183 0.00848519 -3.44102e-07
0.0099914 0.00998337 0.00499079
0 0.01 0.00333333
0 0.00166667 0
0.00996279 -1.81005e-05 0.00165953
0 0.00166667 0.01
0 0.00833333 0
0.00997971 0.00831685 -7.79373e-06
0.0099736 -1.76858e-05 0.00832268
0.00998608 0.00998302 0.00165856
0.00999694 0.0099836 0.00832253
0.00166747 0.00999892 0.00999954
0 0.01 0.00833333
0.00831981 0.00998683 -5.91364e-06
0.00829699 -1.44858e-05 -4.63774e-06
0.00831246 -1.39994e-05 0.00999111
0.00833513 0.00998753 0.0099914
0 0 0.00833333
0.00999575 0.00831773 0.00998871
0.00165783 -1.54785e-06 1.60992e-09
0 0 0.00166667
0.00332877 0.009997 -8.81931e-07
0.00998018 0.00164977 0.00998875
0.00996418 0.00164914 -7.01508e-06
0.00166086 -1.21037e-06 0.00999965
0.00166463 0.00999909 -1.63131e-07
0 0.01 0.00166667
0.00999969 0.00998374 0.00998874
0 0 0.01
0.00998363 0.00998281 -8.05705e-06
0.00997633 -1.78078e-05 0.00998854
0 0.01 0.01
0.00996032 -1.81804e-05 -6.81053e-06
0 0.01 0
0 0 0
0.00499229 0.00999401 -2.21906e-06
0.00332322 -3.83972e-06 0.00999789
0 0.00833333 0.01

CELLS 343 686
1 0
1 1
1 2
1 3
1 4
1 5
1 6
1 7
1 8
1 9
1 10
1 11
1 12
1 13
1 14
1 15
1 16
1 17
1 18
1 19
1 20
1 21
1 22
1 23
1 24
1 25
1 26
1 27
1 28
1 29
1 30
1 31
1 32
1 33
1 34
1 35
1 36
1 37
1 38
1 39
1 40
1 41
1 42
1 43
1 44
1 45
1 46
1 47
1 48
1 49
1 50
1 51
1 52
1 53
1 54
1 55
1 56
1 57
1 58
1 59
1 60
1 61
1 62
1 63
1 64
1 65
1 66
1 67
1 68
1 69
1 70
1 71
1 72
1 73
1 74
1 75
1 76
1 77
1 78
1 79
1 80
1 81
1 82
1 83
1 84
1 85
1 86
1 87
1 88
1 89
1 90
1 91
1 92
1 93
1 94
1 95
1 96
1 97
1 98
1 99
1 100
1 101
1 102
1 103
1 104
1 105
1 106
1 107
1 108
1 109
1 110
1 111
1 112
1 113
1 114
1 115
1 116
1 117
1 118
1 119
1 120
1 121
1 122
1 123
1 124
1 125
1 126
1 127
1 128
1 129
1 130
1 131
1 132
1 133
1 134
1 135
1 136
1 137
1 138
1 139
1 140
1 141
1 142
1 143
1 144
1 145
1 146
1 147
1 148
1 149
1 150
1 151
1 152
1 153
1 154
1 155
1 156
1 157
1 158
1 159
1 160
1 161
1 162
1 163
1 164
1 165
1 166
1 167
1 168
1 169
1 170
1 171
1 172
1 173
1 174
1 175
1 176
1 177
1 178
1 179
1 180
1 181
1 182
1 183
1 184
1 185
1 186
1 187
1 188
1 189
1 190
1 191
1 192
1 193
1 194
1 195
1 196
1 197
1 198
1 199
1 200
1 201
1 202
1 203
1 204
1 205
1 206
1 207
1 208
1 209
1 210
1 211
1 212
1 213
1 214
1 215
1 216
1 217
1 218
1 219
1 220
1 221
1 222
1 223
1 224
1 225
1 226
1 227
1 228
1 229
1 230
1 231
1 232
1 233
1 234
1 235
1 236
1 237
1 238
1 239
1 240
1 241
1 242
1 243
1 244
1 245
1 246
1 247
1 248
1 249
1 250
1 251
1 252
1 253
1 254
1 255
1 256
1 257
1 258
1 259
1 260
1 261
1 262
1 263
1 264
1 265
1 266
1 267
1 268
1 269
1 270
1 271
1 272
1 273
1 274
1 275
1 276
1 277
1 278
1 279
1 280
1 281
1 282
1 283
1 284
1 285
1 286
1 287
1 288
1 289
1 290
1 291
1 292
1 293
1 294
1 295
1 296
1 297
1 298
1 299
1 300
1 301
1 302
1 303
1 304
1 305
1 306
1 307
1 308
1 309
1 310
1 311
1 312
1 313
1 314
1 315
1 316
1 317
1 318
1 319
1 320
1 321
1 322
1 323
1 324
1 325
1 326
1 327
1 328
1 329
1 330
1 331
1 332
1 333
1 334
1 335
1 336
1 337
1 338
1 339
1 340
1 341
1 342

CELL_TYPES 343
1
1
1
1
1
1
1
1
1
1
1
1
1
1
1
1
1
1
1
1
1
1
1
1
1
1
1
1
1
1
1
1
1
1
1
1
1
1
1
1
1
1
1
1
1
1
1
1
1
1
1
1
1
1
1
1
1
1
1
1
1
1
1
1
1
1
1
1
1
1
1
1
1
1
1
1
1
1
1
1
1
1
1
1
1
1
1
1
1
1
1
1
1
1
1
1
1
1
1
1
1
1
1
1
1
1
1
1
1
1
1
1
1
1
1
1
1
1
1
1
1
1
1
1
1
1
1
1
1
1
1
1
1
1
1
1
1
1
1
1
1
1
1
1
1
1
1
1
1
1
1
1
1
1
1
1
1
1
1
1
1
1
1
1
1
1
1
1
1
1
1
1
1
1
1
1
1
1
1
1
1
1
1
1
1
1
1
1
1
1
1
1
1
1
1
1
1
1
1
1
1
1
1
1
1
1
1
1
1
1
1
1
1
1
1
1
1
1
1
1
1
1
1
1
1
1
1
1
1
1
1
1
1
1
1
1
1
1
1
1
1
1
1
1
1
1
1
1
1
1
1
1
1
1
1
1
1
1
1
1
1
1
1
1
1
1
1
1
1
1
1
1
1
1
1
1
1
1
1
1
1
1
1
1
1
1
1
1
1
1
1
1
1
1
1
1
1
1
1
1
1
1
1
1
1
1
1
1
1
1
1
1
1
1
1
1
1
1
1
1
1
1
1
1
1
1
1
1
1
1
1
1
1
1
1
1
1
1
1
1
1
1
1

POINT_DATA 343
FIELD FieldData 8

NodeID_(#) 1 343 int
0
1
2
3
4
5
6
7
8
9
10
11
12
13
14
15
16
17
18
19
20
21
22
23
24
25
26
27
28
29
30
31
32
33
34
35
36
37
38
39
40
41
42
43
44
45
46
47
48
49
50
51
52
53
54
55
56
57
58
59
60
61
62
63
64
65
66
67
68
69
70
71
72
73
74
75
76
77
78
79
80
81
82
83
84
85
86
87
88
89
90
91
92
93
94
95
96
97
98
99
100
101
102
103
104
105
106
107
108
109
110
111
112
113
114
115
116
117
118
119
120
121
122
123
124
125
126
127
128
129
130
131
132
133
134
135
136
137
138
139
140
141
142
143
144
145
146
147
148
149
150
151
152
153
154
155
156
157
158
159
160
161
162
163
164
165
166
167
168
169
170
171
172
173
174
175
176
177
178
179
180
181
182
183
184
185
186
187
188
189
190
191
192
193
194
195
196
197
198
199
200
201
202
203
204
205
206
207
208
209
210
211
212
213
214
215
216
217
218
219
220
221
222
223
224
225
226
227
228
229
230
231
232
233
234
235
236
237
238
239
240
241
242
243
244
245
246
247
248
249
250
251
252
253
254
255
256
257
258
259
260
261
262
263
264
265
266
267
268
269
270
271
272
273
274
275
276
277
278
279
280
281
282
283
284
285
286
287
288
289
290
291
292
293
294
295
296
297
298
299
300
301
302
303
304
305
306
307
308
309
310
311
312
313
314
315
316
317
318
319
320
321
322
323
324
325
326
327
328
329
330
331
332
333
334
335
336
337
338
339
340
341
342

Component_(#) 1 343 int
0
0
0
0
0
0
0
0
0
0
0
0
0
0
0
0
0
0
0
0
0
0
0
0
0
0
0
0
0
0
0
0
0
0
0
0
0
0
0
0
0
0
0
0
0
0
0
0
0
0
0
0
0
0
0
0
0
0
0
0
0
0
0
0
0
0
0
0
0
0
0
0
0
0
0
0
0
0
0
0
0
0
0
0
0
0
0
0
0
0
0
0
0
0
0
0
0
0
0
0
0
0
0
0
0
0
0
0
0
0
0
0
0
0
0
0
0
0
0
0
0
0
0
0
0
0
0
0
0
0
0
0
0
0
0
0
0
0
0
0
0
0
0
0
0
0
0
0
0
0
0
0
0
0
0
0
0
0
0
0
0
0
0
0
0
0
0
0
0
0
0
0
0
0
0
0
0
0
0
0
0
0
0
0
0
0
0
0
0
0
0
0
0
0
0
0
0
0
0
0
0
0
0
0
0
0
0
0
0
0
0
0
0
0
0
0
0
0
0
0
0
0
0
0
0
0
0
0
0
0
0
0
0
0
0
0
0
0
0
0
0
0
0
0
0
0
0
0
0
0
0
0
0
0
0
0
0
0
0
0
0
0
0
0
0
0
0
0
0
0
0
0
0
0
0
0
0
0
0
0
0
0
0
0
0
0
0
0
0
0
0
0
0
0
0
0
0
0
0
0
0
0
0
0
0
0
0
0
0
0
0
0
0
0
0
0
0
0
0
0
0
0
0
0
0
0
0
0
0
0
0
0
0
0
0
0
0
0
0
0
0
0
0

NodalMass_(kg) 1 343 double
3.15563e-06
1.41304e-05
2.20912e-06
1.71484e-05
8.42e-06
9.09306e-06
9.93033e-06
7.52198e-06
6.81096e-06
5.58223e-06
3.10888e-06
1.07575e-05
4.87011e-06
1.64955e-05
3.0246e-06
8.05984e-06
6.703e-06
1.0877e-05
4.18978e-06
8.16106e-06
6.14143e-06
1.17902e-05
2.23114e-06
4.25176e-06
1.09915e-05
7.41467e-06
4.21871e-06
3.92484e-06
3.08766e-06
1.31268e-05
7.72627e-06
1.65404e-05
1.19037e-05
7.29666e-06
3.81683e-06
1.11001e-05
3.81317e-06
1.39137e-05
6.37414e-06
8.00975e-06
7.6712e-06
1.18847e-05
1.6399e-05
2.78633e-06
8.93599e-06
2.58087e-06
7.57362e-06
4.23241e-06
1.31286e-05
3.80168e-06
2.7746e-06
7.16776e-06
1.21307e-05
5.11765e-06
8.19728e-06
4.58094e-06
2.79503e-06
3.26126e-06
4.12443e-06
2.11915e-06
3.35177e-06
3.61669e-06
1.56838e-05
7.33679e-06
8.24695e-06
5.00369e-06
2.82625e-06
7.20276e-06
3.26815e-06
4.18751e-06
2.02785e-06
2.42152e-06
3.11835e-06
5.97459e-06
5.87101e-06
4.09374e-06
5.45463e-06
2.28825e-06
4.49759e-06
4.38192e-06
4.50892e-06
4.39234e-06
4.27273e-06
5.32031e-06
1.53201e-06
2.38869e-06
2.02885e-06
4.38798e-06
3.17972e-06
3.14298e-06
4.61567e-06
5.87645e-06
8.18088e-06
2.48341e-06
1.53815e-05
3.49683e-06
7.35227e-06
2.01314e-06
2.0408e-06
7.98183e-06
4.41293e-06
7.1389e-06
1.20123e-06
5.03343e-06
1.61257e-06
4.12601e-06
8.73748e-06
4.37849e-06
7.97173e-06
2.13557e-06
3.38137e-06
9.48623e-06
7.40262e-06
1.80226e-06
2.10222e-06
7.98889e-06
1.87983e-06
7.44814e-06
4.19782e-06
2.37156e-06
4.31705e-06
6.06441e-06
4.30905e-06
2.16843e-06
1.8986e-06
1.81294e-06
3.89762e-06
2.44299e-06
1.65628e-06
8.01374e-06
1.64513e-06
2.3931e-06
3.01363e-06
2.99431e-06
1.36541e-06
1.87293e-06
2.09622e-06
1.94762e-06
1.87618e-06
6.37913e-06
4.58628e-06
2.02767e-06
1.61999e-06
2.41284e-06
3.8865e-06
4.44973e-06
2.29839e-06
1.17349e-05
3.11811e-06
1.354e-06
3.45063e-06
1.81846e-06
2.9382e-06
1.37381e-06
2.41464e-06
2.10451e-06
2.63927e-06
2.14166e-06
1.7943e-06
3.19976e-06
1.36989e-06
2.43489e-06
2.08158e-06
1.3601e-06
2.17203e-06
1.89924e-06
3.16996e-06
2.6119e-06
2.37677e-06
1.60225e-06
1.90684e-06
5.49206e-06
1.87878e-06
3.14313e-06
2.97301e-06
1.18454e-06
1.89263e-06
2.04166e-06
2.73572e-06
2.42405e-06
3.23083e-06
3.19752e-06
3.2142e-06
1.94492e-06
1.61196e-06
1.86876e-06
3.22435e-06
2.1114e-06
2.96917e-06
6.15288e-06
2.3097e-06
2.39729e-06
2.38029e-06
2.64508e-06
1.66557e-06
1.82377e-06
2.06583e-06
5.73271e-06
2.08467e-06
2.18324e-06
2.43522e-06
3.1188e-06
3.17316e-06
2.05447e-06
1.9592e-06
3.05718e-06
6.44327e-06
2.08796e-06
2.72615e-06
2.15709e-06
1.86812e-06
2.0028e-06
2.10999e-06
2.88994e-06
2.3222e-06
2.3979e-06
1.97629e-06
6.4127e-06
2.16225e-06
3.29198e-06
2.10223e-06
2.66566e-06
1.94415e-06
2.91865e-06
2.58116e-06
2.11703e-06
2.09534e-06
1.91719e-06
7.06046e-06
2.25203e-06
2.06378e-06
6.28159e-06
2.12147e-06
2.90924e-06
2.12921e-06
6.4487e-06
1.41701e-06
2.0682e-06
6.58062e-06
2.52584e-06
2.39732e-06
7.42191e-07
2.22368e-06
7.06751e-07
7.00657e-07
8.93749e-07
2.53536e-06
2.26535e-06
1.33607e-06
7.84725e-07
2.32303e-06
6.06694e-07
6.68276e-07
6.84307e-07
2.51242e-06
2.31629e-06
7.8367e-07
6.80839e-07
6.22692e-06
6.7471e-07
6.65305e-07
7.01158e-07
1.8232e-06
1.90695e-06
6.86722e-07
7.04792e-07
1.86445e-06
2.28572e-06
6.8045e-07
7.16005e-07
1.82373e-06
6.01079e-07
2.02791e-06
7.4579e-07
5.74423e-07
1.80052e-06
1.454e-06
2.2702e-06
1.80636e-06
2.15356e-06
1.79089e-06
1.79456e-06
6.8231e-07
2.24737e-06
1.45239e-06
1.79556e-06
6.97875e-07
6.24265e-07
6.62717e-07
1.44627e-06
1.40138e-06
2.15258e-06
1.82851e-06
1.3994e-06
1.43932e-06
2.19226e-06
6.97732e-07
1.77726e-06
1.79162e-06
6.54258e-07
7.3397e-07
2.34895e-06
7.10392e-07
6.56982e-07
6.26314e-07
2.18926e-06
6.12493e-07
6.03901e-07
5.92831e-07
5.12031e-07
5.11667e-07
4.9467e-07
4.97016e-07
4.96269e-07
5.33079e-07
4.94191e-07
4.97855e-07
4.86862e-07
4.90626e-07
4.94649e-07
4.94954e-07
4.91922e-07
4.89615e-07
4.96354e-07
4.95189e-07
4.82188e-07
1.10854e-06
5.3299e-07
5.44763e-07
5.36655e-07
5.15417e-07
5.01772e-07
5.53774e-07
5.53774e-07
5.53774e-07
5.53774e-07
5.53774e-07
5.53774e-07
5.50785e-07
5.50785e-07
7.45291e-07
7.11668e-07
4.9897e-07

NodalForce_(N) 3 343 double
7.40403e-07 -1.82661e-07 3.68631e-08
6.50248e-06 -2.66478e-06 1.41595e-06
-2.02078e-05 0.000181796 0.000327142
-2.10742e-06 -3.01313e-06 1.51917e-06
-1.18772e-05 -1.34005e-05 6.63005e-06
-9.61209e-06 -1.26523e-05 7.63557e-06
7.85557e-07 -3.04886e-05 1.83594e-05
5.18658e-06 -1.53115e-05 8.92665e-06
-1.2692e-05 -1.77678e-05 1.06667e-05
9.16035e-07 -6.88589e-06 3.98251e-06
-9.4614e-06 -3.88347e-06 2.35541e-06
-2.86002e-05 -1.8652e-05 1.08258e-05
-1.54228e-05 -6.43504e-06 3.24594e-06
-1.1906e-05 -2.4546e-06 1.99654e-06
-7.32801e-06 -3.3102e-06 2.43312e-06
3.52357e-06 -1.97235e-05 1.27607e-05
6.70599e-06 -1.40408e-05 8.40915e-06
-5.0663e-06 -2.46428e-06 1.32776e-06
-0.000797797 0.000378672 0.000115168
-3.50512e-07 -5.52786e-07 1.90842e-07
-1.55019e-06 -1.63631e-05 9.10195e-06
-2.28033e-05 -4.08491e-05 2.2977e-05
-0.000271318 -0.000984813 -0.000497173
-5.37508e-07 -5.54393e-06 2.66523e-06
-5.9047e-06 -1.79522e-05 1.05009e-05
3.54067e-06 -6.26606e-06 4.59236e-06
-2.22434e-06 -2.35639e-07 2.48281e-07
-5.37567e-06 -5.12593e-06 2.82129e-06
4.69635e-06 -9.16749e-07 6.81735e-07
1.17626e-05 -1.39272e-06 1.18127e-06
1.25404e-05 -5.45419e-06 4.78976e-06
2.02302e-05 -5.44836e-05 3.54068e-05
-1.61953e-05 -3.94449e-05 2.55993e-05
5.31725e-06 -2.65172e-05 1.64043e-05
1.52535e-05 -1.91395e-05 1.12771e-05
2.68137e-05 -3.32185e-05 1.96766e-05
1.84065e-05 -1.48112e-05 8.41613e-06
5.81298e-05 -4.66373e-05 2.77498e-05
-6.09534e-06 -4.10242e-06 2.35388e-06
-1.18956e-05 -7.87591e-06 6.19066e-06
-1.25898e-05 -7.62395e-06 3.18922e-06
9.30883e-06 -1.53777e-05 1.03744e-05
4.19071e-06 -2.49591e-06 1.04458e-06
3.79754e-06 -1.15836e-06 3.9187e-07
1.27534e-05 -7.2923e-06 3.41367e-06
0.000500411 0.000304504 -0.000266364
2.39215e-06 -9.11543e-07 4.16021e-07
0.000182551 0.00060611 0.000215236
-1.51937e-06 -2.41977e-06 1.63939e-06
-1.16563e-06 -3.11096e-07 1.17078e-07
-8.9713e-07 -7.31042e-06 5.09884e-06
-3.46672e-06 -1.34419e-05 9.77078e-06
7.0388e-06 -1.35887e-06 8.56852e-07
2.2855e-06 -1.71506e-06 1.04315e-06
9.27924e-07 -7.23072e-07 4.47696e-07
-2.83382e-06 -2.27818e-05 1.44447e-05
0.00031965 0.0004419 0.00042992
2.0281e-06 -4.0426e-07 1.45791e-07
-0.000129484 -6.54955e-05 -0.000206596
2.38138e-06 -1.04906e-05 6.59319e-06
-4.38165e-06 -1.3949e-06 1.2362e-06
-7.86936e-06 -1.94281e-05 1.10856e-05
-1.06729e-05 -5.88917e-05 3.29821e-05
-2.9217e-06 -2.80041e-05 1.64121e-05
-9.87214e-06 -7.71513e-06 3.12651e-06
3.30364e-06 -1.08344e-07 9.14565e-08
-5.46343e-06 -1.68807e-06 6.70479e-07
-1.23922e-05 -1.40438e-05 9.85608e-06
8.81394e-06 -1.62508e-05 9.75212e-06
-1.40195e-05 -1.78777e-05 9.91957e-06
1.30557e-06 -1.25231e-06 7.79198e-07
-4.48934e-06 -1.16453e-06 8.43937e-07
-4.25174e-06 -1.96398e-06 6.89952e-07
-3.69789e-06 -6.42923e-06 4.8552e-06
-9.03106e-07 -2.7864e-06 1.50393e-06
0.000637875 0.000297848 0.000314434
-1.02296e-06 -6.87205e-06 3.93735e-06
4.27483e-07 -1.48811e-07 7.77211e-08
1.60481e-06 -8.19152e-06 5.66015e-06
9.13008e-06 -8.62677e-06 5.85225e-06
6.56082e-06 -4.5641e-06 2.9667e-06
1.18188e-06 -4.18103e-06 2.66609e-06
1.22275e-05 -2.12448e-05 1.29253e-05
5.06918e-06 -2.03183e-06 1.35557e-06
-7.71026e-05 -0.000740464 0.000151746
1.69579e-06 -2.84418e-08 1.44969e-08
7.5608e-05 -0.000380523 0.000223532
5.84837e-05 -0.000173408 8.92004e-05
-0.000109569 7.0065e-05 -0.000147784
2.92343e-06 -9.73827e-07 6.64647e-07
-9.13383e-07 -2.40181e-07 1.46051e-07
3.29735e-06 -7.64543e-06 4.83769e-06
-1.08359e-06 -3.8927e-06 3.75211e-06
-9.08678e-06 -6.89171e-06 4.47816e-06
-5.62009e-05 -5.64739e-05 3.34433e-05
-8.87944e-06 -1.07063e-05 5.63693e-06
-1.08003e-05 -1.66795e-05 8.65454e-06
-1.15629e-06 -1.0504e-05 6.1405e-06
-7.30278e-05 -4.2752e-05 -9.57664e-05
1.45065e-05 -1.72646e-05 9.96355e-06
-1.29217e-06 -9.96298e-06 5.38683e-06
3.65211e-06 -1.48998e-05 9.29037e-06
2.02953e-06 -7.22134e-07 3.15708e-07
1.99484e-05 -1.94573e-05 1.13758e-05
-5.60525e-09 -8.59437e-07 3.93343e-07
-7.43871e-06 -9.83054e-06 5.61796e-06
2.68355e-05 -1.86879e-05 1.04911e-05
-1.82506e-05 -1.85589e-05 1.03919e-05
-2.11562e-05 -1.87352e-05 9.89756e-06
-1.10994e-06 -5.93103e-08 7.68032e-08
1.39795e-05 -9.13568e-06 5.76774e-06
2.68809e-05 -1.35855e-05 8.35722e-06
1.7353e-05 -1.31805e-05 9.10285e-06
-0.000219417 -0.000301951 -0.000333494
-2.95389e-06 -1.13449e-05 6.42933e-06
-1.82246e-06 -8.64685e-07 6.64872e-07
8.44141e-06 -9.46292e-06 5.59947e-06
1.28208e-05 -2.74001e-05 1.63761e-05
2.08659e-05 -8.84696e-06 4.9829e-06
-1.02208e-05 -7.2633e-06 3.7815e-06
-1.30137e-05 -2.30861e-05 1.3367e-05
-8.64752e-06 -2.29652e-05 1.38588e-05
-2.77154e-06 -4.06167e-07 2.04566e-07
0.00027623 0.000281859 -6.23899e-05
-1.24972e-06 -1.90042e-07 2.60781e-08
2.80222e-06 -8.97749e-06 5.50873e-06
1.75404e-05 -7.39846e-06 4.64651e-06
-0.000125977 -0.000518324 -9.65181e-05
-9.02644e-08 -1.06642e-07 7.05695e-08
1.67057e-05 -7.74138e-06 3.52699e-06
5.12678e-06 -6.40388e-06 3.90846e-06
5.05099e-06 -1.18111e-05 7.41277e-06
-1.19382e-05 -6.35087e-06 3.98957e-06
-7.83855e-06 -8.30144e-06 5.76617e-06
-9.61133e-05 -0.000870157 -0.000141543
8.56899e-07 -4.34774e-08 4.78398e-08
8.35081e-05 -0.000147831 -0.000317988
-4.94722e-06 -8.46479e-06 4.67682e-06
6.02672e-06 -9.34482e-06 5.60397e-06
1.8115e-05 -2.38787e-05 1.41917e-05
-6.71648e-06 -1.69689e-05 1.12651e-05
-9.58727e-06 -6.80115e-06 4.15469e-06
-8.12714e-06 -6.98209e-06 3.88275e-06
-9.46724e-06 -1.29133e-05 7.60416e-06
-0.000675033 0.000131006 0.000196905
-2.01341e-05 -1.04876e-05 5.79734e-06
-4.59513e-06 -3.09827e-06 1.32127e-06
1.75093e-05 -3.98314e-05 2.34917e-05
3.16624e-06 -1.59752e-05 9.34233e-06
2.85234e-06 -1.44968e-06 6.67149e-07
7.23782e-06 -1.53782e-06 6.16906e-07
-6.99968e-07 -1.07791e-07 7.36741e-08
2.77184e-05 -0.000398784 -0.00014453
2.22565e-07 -6.85447e-06 4.23075e-06
1.1571e-05 -6.66134e-06 3.56678e-06
1.5922e-06 -6.34404e-06 4.19759e-06
0.000424778 -0.000457156 0.000196122
-0.00119162 2.3305e-05 0.000275302
-2.41666e-06 -4.29965e-06 3.16391e-06
-7.28379e-06 -1.65012e-05 9.96723e-06
-3.89776e-06 -1.84879e-06 7.41659e-07
2.18705e-06 -8.3455e-07 4.78554e-07
-6.35719e-07 -7.17477e-06 3.98559e-06
-9.11394e-07 -2.26586e-06 1.76009e-06
1.45084e-06 -1.07043e-05 6.78117e-06
-1.04743e-07 -7.15813e-06 4.72681e-06
2.71263e-06 -8.8249e-06 5.32957e-06
4.28856e-06 -1.17396e-06 1.09798e-06
1.27584e-05 -7.33514e-06 4.4843e-06
9.21257e-06 -5.12088e-06 2.9113e-06
6.46656e-06 -3.36732e-06 2.29072e-06
1.22139e-05 -1.38633e-05 8.4297e-06
-3.58602e-06 -6.66374e-06 3.68279e-06
-2.60968e-06 -1.07543e-06 1.17671e-06
-3.20763e-06 -2.4045e-06 2.37889e-06
-2.06738e-06 -1.06377e-06 9.83192e-07
4.47572e-06 -5.84278e-06 3.74283e-06
-3.84037e-06 -1.11369e-06 4.17505e-07
4.99164e-06 -1.37936e-05 8.1869e-06
0.00010722 -0.000705801 -0.000570737
-7.24321e-06 -1.6306e-05 1.02617e-05
6.11151e-06 -1.26514e-05 7.49075e-06
5.89168e-07 -1.69807e-05 9.66348e-06
0.00019102 -0.000567628 0.000198906
1.38168e-07 -5.9522e-07 4.02518e-07
-9.73291e-06 -6.58863e-06 3.66092e-06
-1.32725e-05 -1.26807e-05 7.96345e-06
-6.03488e-06 -8.60856e-06 5.55408e-06
8.64749e-06 -5.52866e-06 2.75574e-06
1.01876e-05 -8.63968e-06 4.65342e-06
8.29359e-06 -4.33598e-06 2.07659e-06
7.19963e-06 -6.44924e-06 3.63149e-06
-9.08131e-07 -6.51057e-07 9.22362e-07
3.65366e-06 -2.28374e-06 1.85264e-06
-2.49813e-06 -1.12715e-06 4.07305e-07
-3.55515e-06 -1.39165e-06 5.37413e-07
3.33711e-06 -1.06655e-05 6.19513e-06
1.31123e-05 -4.34107e-06 2.83917e-06
4.81919e-07 -1.06116e-05 6.35822e-06
6.35484e-06 -5.17071e-06 3.38981e-06
1.38001e-05 -9.62111e-06 5.43814e-06
-6.50812e-06 -9.92649e-05 0.000275075
1.9466e-06 -1.39285e-07 4.42534e-08
-6.6526e-05 0.000302912 -7.49608e-05
6.80237e-06 -2.11856e-06 1.34992e-06
1.09338e-05 -3.50306e-06 1.8132e-06
6.08531e-06 -7.8123e-06 5.41208e-06
4.31095e-06 -6.02577e-06 3.73476e-06
-7.13834e-06 -5.9666e-06 2.78644e-06
-7.1121e-06 -4.7293e-06 2.14632e-06
1.39199e-06 -8.53679e-08 -9.33155e-09
1.26505e-06 -8.29446e-06 4.7654e-06
-2.47455e-06 -1.06347e-05 6.57475e-06
1.15011e-05 -8.13895e-06 4.44136e-06
-6.39239e-06 -4.19673e-06 3.05802e-06
-2.16718e-06 -1.14007e-06 5.37569e-07
-7.09515e-06 -1.03646e-05 6.33085e-06
6.64481e-07 -1.50176e-06 9.9509e-07
3.48328e-06 -4.06543e-06 2.79052e-06
1.10938e-05 -1.20651e-05 7.42218e-06
5.00178e-06 -3.58505e-06 2.06921e-06
-1.68935e-06 -1.35119e-05 8.21938e-06
7.89163e-06 -3.41191e-06 1.6541e-06
-1.00632e-05 -9.17058e-06 4.83798e-06
4.72134e-06 -1.11774e-06 3.78399e-07
-0.000488678 -7.63667e-05 3.14979e-05
-6.9234e-07 -2.0432e-06 1.71533e-06
-7.11618e-06 -3.92592e-06 1.86713e-06
3.18659e-06 -4.03243e-06 2.29493e-06
5.98001e-06 -2.4893e-06 1.02613e-06
-5.06499e-06 -2.82716e-06 1.08826e-06
-6.38071e-08 -3.54893e-06 2.26898e-06
0.000410868 -0.000626903 -2.15796e-05
9.14899e-05 -3.23861e-05 0.000178289
4.97388e-06 -2.5095e-06 2.09539e-06
9.26595e-06 -7.7304e-06 4.70257e-06
-2.94964e-06 -2.89876e-06 1.46907e-06
2.0462e-06 -1.03696e-05 6.28942e-06
4.60285e-06 -3.6685e-06 2.05526e-06
-4.30651e-06 -4.06192e-06 3.32696e-06
6.53757e-06 -1.21554e-05 7.12575e-06
9.09866e-05 4.10139e-06 6.34987e-05
1.07305e-05 -8.61509e-06 5.21378e-06
-4.94315e-07 -7.4231e-07 3.92628e-07
0.000411281 -0.0003262 -3.22341e-06
9.57881e-07 -1.33515e-06 9.16686e-07
0.000514489 -0.000372605 -0.000109778
9.68333e-06 -1.13099e-05 6.70879e-06
5.64938e-06 -6.75448e-06 4.03501e-06
0.000161087 -0.000240522 -8.87662e-05
1.41967e-06 -3.48641e-06 2.18718e-06
-0.000261564 -0.00028154 -0.000256606
-1.97335e-06 -3.6694e-06 2.06164e-06
2.50343e-06 -3.43823e-06 2.07356e-06
6.79153e-06 -2.20413e-06 1.75121e-06
-3.30463e-06 -1.19874e-05 7.13796e-06
-7.76366e-07 -1.50658e-06 8.1068e-07
-0.000518841 -0.000612309 -4.83624e-05
-2.89339e-06 -4.29689e-06 2.26978e-06
-2.8938e-06 -1.22644e-06 6.91309e-07
-3.07712e-06 -3.61729e-06 2.06963e-06
-0.000410567 -0.000376386 -3.06135e-05
1.15105e-05 -7.51107e-06 4.31094e-06
1.03508e-05 -9.6575e-06 5.62417e-06
-2.60277e-06 -3.74004e-06 2.12916e-06
1.98144e-06 -3.60662e-06 2.14125e-06
-4.15493e-08 -2.5313e-07 2.49436e-08
0.000228164 0.000399948 -5.47672e-05
5.38431e-05 -3.85602e-06 -7.06478e-05
0.000211471 -0.000195027 -0.00013336
1.07084e-05 -7.4192e-06 4.38422e-06
3.22529e-06 -3.04586e-06 1.76253e-06
6.28265e-06 -2.28552e-06 8.68608e-07
-5.77932e-07 -3.6648e-06 2.40407e-06
-9.57354e-05 -6.78472e-05 -3.38107e-05
9.33225e-05 0.000476409 0.000100716
-9.5905e-07 -1.97801e-07 2.16051e-08
-1.2133e-06 -1.77186e-07 1.045e-07
4.53146e-06 -7.32623e-06 4.67026e-06
1.65919e-07 -1.72335e-07 5.91415e-08