# vtk DataFile Version 4.2
vtk output
ASCII
DATASET UNSTRUCTURED_GRID

POINTS 343 double
0.0011229 0.00419487 1.01787e-07
0.00217176 0.00498236 0.00217549
0 0.00419538 0.00112517
0.00193022 0.00195431 0.00194226
0.00516844 0.00240547 0.00503327
0.00517115 0.00382881 0.00639864
0.00762286 0.00477273 0.00500136
0.00622566 0.00484863 0.00369337
0.00683437 0.0032863 0.00691599
0.00499133 0.00499144 0.00500077
0.00417719 0.00111702 0.0100001
0.00527831 0.00207872 0.00790536
0.00418725 -8.61494e-06 0.00831803
0.00201169 0.00200234 0.00803339
0.00428347 0.0025319 0.0100002
0.00695659 0.00644461 0.00694898
0.00641468 0.00618057 0.00518472
0.00226029 0.00218443 0.00514628
0 0.00143586 0.00417514
0.00159466 0.00346609 0.00403708
0.0068376 0.0031916 0.00316345
0.00774399 0.00220996 0.00506645
0 0.00270918 0.00154168
0.00415907 0.0014274 1.02981e-06
0.00500805 0.0021864 0.00219923
0.00396352 0.00352597 0.00160395
0.00134503 -6.44239e-07 0.00406009
0.00418287 -8.88706e-06 0.00168919
0.00262814 0.00695141 4.57828e-07
0.00193928 0.00805266 0.00194503
0.00408966 0.00624747 0.00164596
0.00800334 0.00798295 0.00799997
0.00796309 0.00481259 0.00802497
0.00838885 0.00607629 0.00595078
0.0100028 0.00882089 0.00419568
0.00757914 0.00763294 0.00496598
0.0085714 0.00997644 0.00416936
0.00798102 0.00796808 0.00201858
0.00353515 0.00303597 0.00696001
0.00443578 0.00366102 0.00832498
0.00389101 0.00159965 0.00596956
0.00500586 0.00766709 0.00767781
0.00198977 0.00800774 0.00798975
0.00282858 0.00999692 0.0071274
0.00391787 0.00839876 0.00595836
0 0.00695361 0.00262895
0.00164688 0.00623915 0.00408797
0 0.0040177 0.00850214
0.00231488 0.00498555 0.00766168
0.00143293 0.0041744 0.00999999
0.00717368 0.00711561 0.0100001
0.00611722 0.005969 0.00841904
0.00205248 0.00794133 0.00474196
0.00304412 0.00694259 0.00646801
0.00158705 0.00607827 0.00592609
0.00998791 0.00577907 0.00831847
0 0.00718191 0.00711644
0.00158539 0.00577334 1.17262e-07
0 0.00577432 0.00158701
0.00999446 0.00715281 0.00711789
0.00286593 0.00334892 0.0100001
0.00996877 0.00140402 0.00417782
0.00803669 0.00193947 0.0019816
0.00838945 0.00349857 0.004001
0.00372504 0.0016472 0.00412882
0.00150994 0.00999966 0.00581507
0.00280797 -4.11893e-06 0.007128
0.00610782 0.00416964 0.00837751
0.00999554 0.00724487 0.00419799
0.0085262 -2.60436e-05 0.00417027
0.00334295 0.00286915 6.63722e-07
0.00269832 0.0015384 0.0100001
0.00281757 -4.49521e-06 0.00283233
0.00479712 0.00519309 0.00755522
0.00315834 0.00314586 0.00316771
0 0.00849157 0.00581511
0.00486502 0.00366839 0.00378713
0.00153747 0.00270861 9.03846e-08
0.00579923 0.00831423 0.0099999
0.00598609 0.00998747 0.00850654
0.004215 0.00999315 0.00831814
0.00401753 0.00849742 0.00999972
0.0100007 0.00846223 0.00581679
0.00314854 0.00683321 0.00315123
0 0.00748929 0.00137438
0.00137423 0.00748899 3.75798e-08
0 0.00287343 0.00335182
0 0.00580816 0.00831736
0 0.00429792 0.00253898
0.00253488 0.00429566 4.49649e-07
0.00143359 0.00581912 0.01
0.00517579 0.0064674 0.00640109
0.00360298 0.00650893 0.0082344
0.00692857 0.00261045 0.0100003
0.00799601 0.00193637 0.00803663
0.00694054 -1.9273e-05 0.00308381
0.00600005 0.00165041 0.00361418
0.00997548 0.00284261 0.00335471
0 0.00140616 0.00256446
0.00637473 0.00821472 0.00642184
0.00579754 0.0014213 1.96206e-06
0.00602335 0.00353912 0.00160488
0.00315861 0.00999595 0.00582549
0.00856562 0.00997662 0.00583451
0.00255455 0.00140256 4.98732e-07
0.00594945 -1.52713e-05 0.00149624
0.00628334 0.00827479 0.00361846
0.00852057 -2.58527e-05 0.00583509
0.00618443 0.00165843 0.00636621
0.0014018 0.00256403 0.01
0.00711579 0.00716537 2.07701e-06
0.00516817 0.00768101 0.00216997
0.00593911 0.00608224 0.00160339
0 0.00686719 0.00578184
0.00996898 0.00137411 0.00256765
0.0017721 0.00360979 0.00640796
0.0100015 0.00845722 0.00262633
0.00840519 0.00616721 0.00413466
0.00598789 0.00998674 0.00149518
0.0069383 -1.90286e-05 0.0069275
0.00996841 0.00140384 0.00582178
0.00837818 0.00355054 0.00606244
0.0015014 -8.47794e-07 0.00581525
0 0.0013659 0.00748679
0.00136317 -7.38585e-07 0.00752892
0.0099933 0.00683803 0.00578361
0.00582002 0.00847955 1.52198e-06
0 0.0075208 0.00859127
0.00136498 0.00748636 0.00999995
0.00423307 0.00819946 0.00362877
0.00859808 0.00997645 0.00751307
0.0100011 0.00860105 0.00752758
0.00575125 0.00157373 0.0100001
0.00724261 0.00417101 0.0100003
0 0.0057735 0.00666667
0.00137068 0.0099996 0.00752896
0 0.00863025 0.00752641
0.00855323 -2.65178e-05 0.00251014
0.00999445 0.00692415 0.00263166
0.00845356 0.00631966 0.00216518
0.00849812 0.00580168 0.0100004
0.00746109 0.00135389 0.0100003
0.00855291 -2.61463e-05 0.00751314
0.00996769 0.00133429 0.00748826
0 0.00143551 0.00581971
0.00594818 -1.48555e-05 0.00850633
0.00419201 -8.98662e-06 0.00340069
0.00792215 0.00468724 0.00203667
0.00998217 0.00426782 0.00254191
0.00423329 0.00999288 0.00666678
0.0028386 0.00999694 0.00283218
0.00130685 -6.95079e-07 0.00241836
0 0.00727418 0.00419576
0.00998801 0.00574432 0.00666821
0.006982 0.00998296 0.00308292
0.00750828 0.0086187 0.0100002
0 0.00574334 0.00336387
0 0.0043297 0.00416652
0.00686018 0.00576934 0.0100003
0.00997532 0.00299179 0.0069169
0.00420374 -8.81797e-06 0.00666709
0.00248103 0.00999739 0.00861163
0.00746047 0.0013448 2.68197e-06
0.00576919 0.00665613 0.00999997
0.00999576 0.00749181 0.00859217
0.00860461 0.00753103 0.0100004
0.00689685 0.00300499 2.47274e-06
0.00336094 0.00574008 8.11297e-07
0.00753147 0.00861141 2.13427e-06
0.00752483 0.00998039 0.00138918
0.00578072 0.00685607 1.58894e-06
0.00697046 0.00635527 0.00303491
0.00748193 -2.20117e-05 0.00139025
0.00287936 0.00499681 0.0100001
0.00432404 0.00582792 0.00999998
0.00431945 0.00416071 0.0100001
0.00752309 0.009981 0.00861652
0.00246329 -3.52665e-06 0.00861178
0.00998857 0.00571383 0.0033665
0 0.00302218 0.00691532
0.00997951 0.00398805 0.00850326
0.00848556 0.003994 2.98709e-06
0.00997518 0.00267796 0.00154502
0 0.00244495 0.00857025
0.00244575 0.00856785 0.00999984
0.00748042 -2.15696e-05 0.00861627
0.00846183 0.00260018 0.0100004
0.00883234 0.00416953 0.0100005
0.00567782 0.0099882 0.00583379
0.00518638 0.00757464 0.00503293
0.00565053 0.00998814 0.0042159
0.00697965 0.00998332 0.00692717
0.00301999 0.00691309 0.00999988
0.00415913 0.00432392 1.25715e-06
0.00282038 -4.68408e-06 0.00440504
0.00313617 -5.24157e-06 0.00582587
0.00998206 0.00416499 0.00112848
0.00364032 0.00833258 0.00158895
0.00998194 0.00429978 0.00416905
0.00666029 0.00575886 2.16845e-06
0.00859861 0.00997606 0.00250904
0 0.00848692 0.00262374
0.00135267 0.00999961 0.00405991
0 0.00885053 0.00419359
0.00419853 0.00884345 1.02331e-06
0.00421213 0.00999263 0.00168846
0.00499118 0.00478342 0.00237994
0.00720706 0.00450411 2.49309e-06
0.00561448 -1.40397e-05 0.00421672
0.00564181 -1.39909e-05 0.00583421
0.00131434 0.00999963 0.00241807
0.00854647 0.00242001 3.10836e-06
0.00998212 0.0044922 0.00722101
0.00712358 0.0099826 0.00500119
0.00572708 0.0033526 0.0100002
0.00244529 -3.59308e-06 0.001357
0.00997229 0.00241412 0.00857144
0.00239192 0.00478959 0.00500012
0.00582218 0.0043183 2.02256e-06
0.00830923 0.00578605 2.70312e-06
0.00548635 0.00998907 0.00722083
0.00998152 0.00430038 0.00583527
0.00541107 0.00998885 0.00277639
0.00708169 -1.966e-05 0.00500191
0.00284077 0.00999696 0.00440456
0 0.00452174 0.00721958
0.00451924 0.00721368 0.00999987
0.005451 -1.30896e-05 0.00722072
0.00359858 0.00507001 0.00359694
0.00425861 0.00999279 0.00500848
0.00422825 -8.99724e-06 0.00500912
0.0036662 0.00521299 0.00617491
0 0.005744 0.00499998
0 0.00433013 0.00583333
0.00499539 0.00573619 1.59455e-06
0.0049818 0.00633135 0.00355459
0.00537559 -1.32358e-05 0.00277738
0.00998821 0.00571469 0.00500208
0.00368855 0.00640393 0.00484423
0.00573374 0.00498985 0.0100001
0.00998918 0.00574459 0.00159008
0 0.00666667 0
0.00859064 0.00749763 2.55016e-06
0.00331644 -6.96658e-06 1.48129e-06
0 0.01 0.00666667
0.0050065 0.00999032 0.0100002
0 0.00288419 0.00499914
0.00999726 0.00745971 0.00137737
0.00999383 0.00663694 3.16462e-06
0 0.005 0.01
0.00498469 0.00287454 1.53111e-06
0 0.005 0
0.00996236 -3.28954e-05 0.00333644
0.0100076 0.00996996 0.00666795
0.00419615 0.0072683 1.0918e-06
0.00997505 0.00285362 0.00500147
0.00497608 -1.24777e-05 2.11109e-06
0 0 0.00666667
0.00379011 0.0036121 0.0052267
0.00497457 -1.19084e-05 0.0099997
0.00996163 -3.26017e-05 0.00666841
0 0 0.005
0.00879008 0.00997501 0.00122237
0.0100033 0.00874989 0.00122294
0.00996195 -3.26851e-05 0.00500246
0.00998611 0.00496978 3.38682e-06
0.00121574 0.00121915 1.87839e-08
0 0.00122008 0.00122008
0 0.00333333 0.01
0 0.00666667 0.01
0.00878486 0.00875539 2.44932e-06
0.0100084 0.00996961 0.00333549
0.00422218 0.00999273 0.0034
0.00999149 0.00663779 0.0100008
0 0.00333333 0
0 0.00122008 0.00877992
0.00121437 -9.4283e-07 0.00877973
0.00121563 0.00121945 0.0100001
0.00878817 0.00997554 0.00878071
0.00121995 0.00877938 0.00999993
0 0.00877992 0.00877992
0.0100016 0.0087506 0.00878083
0.00667738 0.00998376 1.46519e-06
0.00996838 0.00118767 0.00122366
0.00122118 0.00999941 0.00878021
0.00878255 0.00875608 0.0100005
0.00998374 0.0049707 0.0100008
0 0 0.00333333
0.00663665 -1.8665e-05 2.87357e-06
0.00874448 -2.76607e-05 0.00122355
0.00120589 -9.35039e-07 0.00121221
0 0.00877992 0.00122008
0.00122073 0.00877938 1.38966e-07
0.00121307 0.00999945 0.00121147
0.00996667 0.00118827 0.0087809
0.00874799 0.00119372 0.0100004
0.00663486 -1.80907e-05 0.0099997
0.00875025 0.00119308 3.31462e-06
0.00874283 -2.71408e-05 0.00878036
0.0099785 0.00330238 3.55289e-06
0.00333815 0.00999485 0.0100003
0.00246377 0.00999755 0.00135658
0.00667495 0.0099844 0.0100004
0.00997605 0.00330335 0.0100008
0 0.01 0.005
0.00262613 0.00848438 5.00767e-07
0.0100079 0.00996979 0.00500177
0 0.01 0.00333333
0 0.00166667 0
0.00996275 -3.31762e-05 0.00167034
0 0.00166667 0.01
0 0.00833333 0
0.0100016 0.00830333 2.90915e-06
0.00996127 -3.27033e-05 0.0083343
0.0100088 0.00996939 0.0016693
0.0100072 0.00996999 0.00833438
0.0016691 0.00999832 0.0100001
0 0.01 0.00833333
0.00834409 0.00997678 2.14457e-06
0.00829921 -2.60044e-05 3.38772e-06
0.00829708 -2.54479e-05 0.0100001
0.00834152 0.00997727 0.0100005
0 0 0.00833333
0.00999929 0.00830414 0.0100008
0.00165779 -2.38666e-06 4.26791e-07
0 0 0.00166667
0.00334071 0.00999511 6.22772e-07
0.00996843 0.00163504 0.0100007
0.00997078 0.00163439 3.67639e-06
0.0016579 -1.98978e-06 0.0100002
0.00167002 0.00999867 2.18895e-07
0 0.01 0.00166667
0.010007 0.00996995 0.0100009
0 0 0.01
0.0100093 0.00996924 2.63194e-06
0.00996086 -3.28026e-05 0.0100004
0 0.01 0.01
0.00996313 -3.34443e-05 3.95503e-06
0 0.01 0
0 0 0
0.00500942 0.0099898 1.02229e-06
0.00331549 -6.23516e-06 0.0099997
0 0.00833333 0.01

CELLS 343 686
1 0
1 1
1 2
1 3
1 4
1 5
1 6
1 7
1 8
1 9
1 10
1 11
1 12
1 13
1 14
1 15
1 16
1 17
1 18
1 19
1 20
1 21
1 22
1 23
1 24
1 25
1 26
1 27
1 28
1 29
1 30
1 31
1 32
1 33
1 34
1 35
1 36
1 37
1 38
1 39
1 40
1 41
1 42
1 43
1 44
1 45
1 46
1 47
1 48
1 49
1 50
1 51
1 52
1 53
1 54
1 55
1 56
1 57
1 58
1 59
1 60
1 61
1 62
1 63
1 64
1 65
1 66
1 67
1 68
1 69
1 70
1 71
1 72
1 73
1 74
1 75
1 76
1 77
1 78
1 79
1 80
1 81
1 82
1 83
1 84
1 85
1 86
1 87
1 88
1 89
1 90
1 91
1 92
1 93
1 94
1 95
1 96
1 97
1 98
1 99
1 100
1 101
1 102
1 103
1 104
1 105
1 106
1 107
1 108
1 109
1 110
1 111
1 112
1 113
1 114
1 115
1 116
1 117
1 118
1 119
1 120
1 121
1 122
1 123
1 124
1 125
1 126
1 127
1 128
1 129
1 130
1 131
1 132
1 133
1 134
1 135
1 136
1 137
1 138
1 139
1 140
1 141
1 142
1 143
1 144
1 145
1 146
1 147
1 148
1 149
1 150
1 151
1 152
1 153
1 154
1 155
1 156
1 157
1 158
1 159
1 160
1 161
1 162
1 163
1 164
1 165
1 166
1 167
1 168
1 169
1 170
1 171
1 172
1 173
1 174
1 175
1 176
1 177
1 178
1 179
1 180
1 181
1 182
1 183
1 184
1 185
1 186
1 187
1 188
1 189
1 190
1 191
1 192
1 193
1 194
1 195
1 196
1 197
1 198
1 199
1 200
1 201
1 202
1 203
1 204
1 205
1 206
1 207
1 208
1 209
1 210
1 211
1 212
1 213
1 214
1 215
1 216
1 217
1 218
1 219
1 220
1 221
1 222
1 223
1 224
1 225
1 226
1 227
1 228
1 229
1 230
1 231
1 232
1 233
1 234
1 235
1 236
1 237
1 238
1 239
1 240
1 241
1 242
1 243
1 244
1 245
1 246
1 247
1 248
1 249
1 250
1 251
1 252
1 253
1 254
1 255
1 256
1 257
1 258
1 259
1 260
1 261
1 262
1 263
1 264
1 265
1 266
1 267
1 268
1 269
1 270
1 271
1 272
1 273
1 274
1 275
1 276
1 277
1 278
1 279
1 280
1 281
1 282
1 283
1 284
1 285
1 286
1 287
1 288
1 289
1 290
1 291
1 292
1 293
1 294
1 295
1 296
1 297
1 298
1 299
1 300
1 301
1 302
1 303
1 304
1 305
1 306
1 307
1 308
1 309
1 310
1 311
1 312
1 313
1 314
1 315
1 316
1 317
1 318
1 319
1 320
1 321
1 322
1 323
1 324
1 325
1 326
1 327
1 328
1 329
1 330
1 331
1 332
1 333
1 334
1 335
1 336
1 337
1 338
1 339
1 340
1 341
1 342

CELL_TYPES 343
1
1
1
1
1
1
1
1
1
1
1
1
1
1
1
1
1
1
1
1
1
1
1
1
1
1
1
1
1
1
1
1
1
1
1
1
1
1
1
1
1
1
1
1
1
1
1
1
1
1
1
1
1
1
1
1
1
1
1
1
1
1
1
1
1
1
1
1
1
1
1
1
1
1
1
1
1
1
1
1
1
1
1
1
1
1
1
1
1
1
1
1
1
1
1
1
1
1
1
1
1
1
1
1
1
1
1
1
1
1
1
1
1
1
1
1
1
1
1
1
1
1
1
1
1
1
1
1
1
1
1
1
1
1
1
1
1
1
1
1
1
1
1
1
1
1
1
1
1
1
1
1
1
1
1
1
1
1
1
1
1
1
1
1
1
1
1
1
1
1
1
1
1
1
1
1
1
1
1
1
1
1
1
1
1
1
1
1
1
1
1
1
1
1
1
1
1
1
1
1
1
1
1
1
1
1
1
1
1
1
1
1
1
1
1
1
1
1
1
1
1
1
1
1
1
1
1
1
1
1
1
1
1
1
1
1
1
1
1
1
1
1
1
1
1
1
1
1
1
1
1
1
1
1
1
1
1
1
1
1
1
1
1
1
1
1
1
1
1
1
1
1
1
1
1
1
1
1
1
1
1
1
1
1
1
1
1
1
1
1
1
1
1
1
1
1
1
1
1
1
1
1
1
1
1
1
1
1
1
1
1
1
1
1
1
1
1
1
1
1
1
1
1
1
1
1
1
1
1
1
1
1
1
1
1
1
1
1
1
1
1
1
1

POINT_DATA 343
FIELD FieldData 8

NodeID_(#) 1 343 int
0
1
2
3
4
5
6
7
8
9
10
11
12
13
14
15
16
17
18
19
20
21
22
23
24
25
26
27
28
29
30
31
32
33
34
35
36
37
38
39
40
41
42
43
44
45
46
47
48
49
50
51
52
53
54
55
56
57
58
59
60
61
62
63
64
65
66
67
68
69
70
71
72
73
74
75
76
77
78
79
80
81
82
83
84
85
86
87
88
89
90
91
92
93
94
95
96
97
98
99
100
101
102
103
104
105
106
107
108
109
110
111
112
113
114
115
116
117
118
119
120
121
122
123
124
125
126
127
128
129
130
131
132
133
134
135
136
137
138
139
140
141
142
143
144
145
146
147
148
149
150
151
152
153
154
155
156
157
158
159
160
161
162
163
164
165
166
167
168
169
170
171
172
173
174
175
176
177
178
179
180
181
182
183
184
185
186
187
188
189
190
191
192
193
194
195
196
197
198
199
200
201
202
203
204
205
206
207
208
209
210
211
212
213
214
215
216
217
218
219
220
221
222
223
224
225
226
227
228
229
230
231
232
233
234
235
236
237
238
239
240
241
242
243
244
245
246
247
248
249
250
251
252
253
254
255
256
257
258
259
260
261
262
263
264
265
266
267
268
269
270
271
272
273
274
275
276
277
278
279
280
281
282
283
284
285
286
287
288
289
290
291
292
293
294
295
296
297
298
299
300
301
302
303
304
305
306
307
308
309
310
311
312
313
314
315
316
317
318
319
320
321
322
323
324
325
326
327
328
329
330
331
332
333
334
335
336
337
338
339
340
341
342

Component_(#) 1 343 int
0
0
0
0
0
0
0
0
0
0
0
0
0
0
0
0
0
0
0
0
0
0
0
0
0
0
0
0
0
0
0
0
0
0
0
0
0
0
0
0
0
0
0
0
0
0
0
0
0
0
0
0
0
0
0
0
0
0
0
0
0
0
0
0
0
0
0
0
0
0
0
0
0
0
0
0
0
0
0
0
0
0
0
0
0
0
0
0
0
0
0
0
0
0
0
0
0
0
0
0
0
0
0
0
0
0
0
0
0
0
0
0
0
0
0
0
0
0
0
0
0
0
0
0
0
0
0
0
0
0
0
0
0
0
0
0
0
0
0
0
0
0
0
0
0
0
0
0
0
0
0
0
0
0
0
0
0
0
0
0
0
0
0
0
0
0
0
0
0
0
0
0
0
0
0
0
0
0
0
0
0
0
0
0
0
0
0
0
0
0
0
0
0
0
0
0
0
0
0
0
0
0
0
0
0
0
0
0
0
0
0
0
0
0
0
0
0
0
0
0
0
0
0
0
0
0
0
0
0
0
0
0
0
0
0
0
0
0
0
0
0
0
0
0
0
0
0
0
0
0
0
0
0
0
0
0
0
0
0
0
0
0
0
0
0
0
0
0
0
0
0
0
0
0
0
0
0
0
0
0
0
0
0
0
0
0
0
0
0
0
0
0
0
0
0
0
0
0
0
0
0
0
0
0
0
0
0
0
0
0
0
0
0
0
0
0
0
0
0
0
0
0
0
0
0
0
0
0
0
0
0
0
0
0
0
0
0
0
0
0
0
0
0

NodalMass_(kg) 1 343 double
3.15563e-06
1.41304e-05
2.20912e-06
1.71484e-05
8.42e-06
9.09306e-06
9.93033e-06
7.52198e-06
6.81096e-06
5.58223e-06
3.10888e-06
1.07575e-05
4.87011e-06
1.64955e-05
3.0246e-06
8.05984e-06
6.703e-06
1.0877e-05
4.18978e-06
8.16106e-06
6.14143e-06
1.17902e-05
2.23114e-06
4.25176e-06
1.09915e-05
7.41467e-06
4.21871e-06
3.92484e-06
3.08766e-06
1.31268e-05
7.72627e-06
1.65404e-05
1.19037e-05
7.29666e-06
3.81683e-06
1.11001e-05
3.81317e-06
1.39137e-05
6.37414e-06
8.00975e-06
7.6712e-06
1.18847e-05
1.6399e-05
2.78633e-06
8.93599e-06
2.58087e-06
7.57362e-06
4.23241e-06
1.31286e-05
3.80168e-06
2.7746e-06
7.16776e-06
1.21307e-05
5.11765e-06
8.19728e-06
4.58094e-06
2.79503e-06
3.26126e-06
4.12443e-06
2.11915e-06
3.35177e-06
3.61669e-06
1.56838e-05
7.33679e-06
8.24695e-06
5.00369e-06
2.82625e-06
7.20276e-06
3.26815e-06
4.18751e-06
2.02785e-06
2.42152e-06
3.11835e-06
5.97459e-06
5.87101e-06
4.09374e-06
5.45463e-06
2.28825e-06
4.49759e-06
4.38192e-06
4.50892e-06
4.39234e-06
4.27273e-06
5.32031e-06
1.53201e-06
2.38869e-06
2.02885e-06
4.38798e-06
3.17972e-06
3.14298e-06
4.61567e-06
5.87645e-06
8.18088e-06
2.48341e-06
1.53815e-05
3.49683e-06
7.35227e-06
2.01314e-06
2.0408e-06
7.98183e-06
4.41293e-06
7.1389e-06
1.20123e-06
5.03343e-06
1.61257e-06
4.12601e-06
8.73748e-06
4.37849e-06
7.97173e-06
2.13557e-06
3.38137e-06
9.48623e-06
7.40262e-06
1.80226e-06
2.10222e-06
7.98889e-06
1.87983e-06
7.44814e-06
4.19782e-06
2.37156e-06
4.31705e-06
6.06441e-06
4.30905e-06
2.16843e-06
1.8986e-06
1.81294e-06
3.89762e-06
2.44299e-06
1.65628e-06
8.01374e-06
1.64513e-06
2.3931e-06
3.01363e-06
2.99431e-06
1.36541e-06
1.87293e-06
2.09622e-06
1.94762e-06
1.87618e-06
6.37913e-06
4.58628e-06
2.02767e-06
1.61999e-06
2.41284e-06
3.8865e-06
4.44973e-06
2.29839e-06
1.17349e-05
3.11811e-06
1.354e-06
3.45063e-06
1.81846e-06
2.9382e-06
1.37381e-06
2.41464e-06
2.10451e-06
2.63927e-06
2.14166e-06
1.7943e-06
3.19976e-06
1.36989e-06
2.43489e-06
2.08158e-06
1.3601e-06
2.17203e-06
1.89924e-06
3.16996e-06
2.6119e-06
2.37677e-06
1.60225e-06
1.90684e-06
5.49206e-06
1.87878e-06
3.14313e-06
2.97301e-06
1.18454e-06
1.89263e-06
2.04166e-06
2.73572e-06
2.42405e-06
3.23083e-06
3.19752e-06
3.2142e-06
1.94492e-06
1.61196e-06
1.86876e-06
3.22435e-06
2.1114e-06
2.96917e-06
6.15288e-06
2.3097e-06
2.39729e-06
2.38029e-06
2.64508e-06
1.66557e-06
1.82377e-06
2.06583e-06
5.73271e-06
2.08467e-06
2.18324e-06
2.43522e-06
3.1188e-06
3.17316e-06
2.05447e-06
1.9592e-06
3.05718e-06
6.44327e-06
2.08796e-06
2.72615e-06
2.15709e-06
1.86812e-06
2.0028e-06
2.10999e-06
2.88994e-06
2.3222e-06
2.3979e-06
1.97629e-06
6.4127e-06
2.16225e-06
3.29198e-06
2.10223e-06
2.66566e-06
1.94415e-06
2.91865e-06
2.58116e-06
2.11703e-06
2.09534e-06
1.91719e-06
7.06046e-06
2.25203e-06
2.06378e-06
6.28159e-06
2.12147e-06
2.90924e-06
2.12921e-06
6.4487e-06
1.41701e-06
2.0682e-06
6.58062e-06
2.52584e-06
2.39732e-06
7.42191e-07
2.22368e-06
7.06751e-07
7.00657e-07
8.93749e-07
2.53536e-06
2.26535e-06
1.33607e-06
7.84725e-07
2.32303e-06
6.06694e-07
6.68276e-07
6.84307e-07
2.51242e-06
2.31629e-06
7.8367e-07
6.80839e-07
6.22692e-06
6.7471e-07
6.65305e-07
7.01158e-07
1.8232e-06
1.90695e-06
6.86722e-07
7.04792e-07
1.86445e-06
2.28572e-06
6.8045e-07
7.16005e-07
1.82373e-06
6.01079e-07
2.02791e-06
7.4579e-07
5.74423e-07
1.80052e-06
1.454e-06
2.2702e-06
1.80636e-06
2.15356e-06
1.79089e-06
1.79456e-06
6.8231e-07
2.24737e-06
1.45239e-06
1.79556e-06
6.97875e-07
6.24265e-07
6.62717e-07
1.44627e-06
1.40138e-06
2.15258e-06
1.82851e-06
1.3994e-06
1.43932e-06
2.19226e-06
6.97732e-07
1.77726e-06
1.79162e-06
6.54258e-07
7.3397e-07
2.34895e-06
7.10392e-07
6.56982e-07
6.26314e-07
2.18926e-06
6.12493e-07
6.03901e-07
5.92831e-07
5.12031e-07
5.11667e-07
4.9467e-07
4.97016e-07
4.96269e-07
5.33079e-07
4.94191e-07
4.97855e-07
4.86862e-07
4.90626e-07
4.94649e-07
4.94954e-07
4.91922e-07
4.89615e-07
4.96354e-07
4.95189e-07
4.82188e-07
1.10854e-06
5.3299e-07
5.44763e-07
5.36655e-07
5.15417e-07
5.01772e-07
5.53774e-07
5.53774e-07
5.53774e-07
5.53774e-07
5.53774e-07
5.53774e-07
5.50785e-07
5.50785e-07
7.45291e-07
7.11668e-07
4.9897e-07

NodalForce_(N) 3 343 double
-3.44076e-07 4.23131e-08 -1.34273e-08
-2.62715e-06 6.77195e-07 -5.80579e-07
0.000524021 0.000467005 0.000454938
-3.74028e-07 8.03174e-07 -5.5276e-07
3.21354e-06 3.67853e-06 -2.82044e-06
3.32773e-06 3.44848e-06 -3.30048e-06
-2.47828e-07 8.28164e-06 -7.9431e-06
-2.12729e-06 4.12673e-06 -3.86395e-06
4.36923e-06 4.88699e-06 -4.57605e-06
-2.70804e-07 1.85305e-06 -1.73217e-06
3.26496e-06 1.10223e-06 -9.889e-07
9.58541e-06 5.21258e-06 -4.63956e-06
4.92179e-06 1.84176e-06 -1.39721e-06
3.92249e-06 7.10372e-07 -7.57189e-07
2.6755e-06 9.29603e-07 -1.02326e-06
1.64315e-07 5.35122e-06 -5.5785e-06
-1.76926e-06 3.78506e-06 -3.68971e-06
1.2939e-06 6.64376e-07 -5.72297e-07
-0.00144071 0.000801673 -0.00028094
-7.37294e-08 1.35547e-07 -1.0845e-07
-4.14831e-07 4.46947e-06 -3.89212e-06
6.27872e-06 1.12775e-05 -9.8314e-06
-0.000614879 -0.00185497 -0.00093736
-8.23092e-07 1.5091e-06 -1.10507e-06
-1.2642e-07 4.92741e-06 -4.28992e-06
-2.09797e-06 1.68309e-06 -1.89515e-06
5.43812e-07 5.92249e-08 -9.24078e-08
8.85965e-07 1.38785e-06 -1.11638e-06
-1.76138e-06 2.22036e-07 -2.94591e-07
-3.87448e-06 3.04926e-07 -5.0325e-07
-4.59273e-06 1.38839e-06 -2.03918e-06
-1.7198e-06 1.49227e-05 -1.55303e-05
7.19376e-06 1.07798e-05 -1.1054e-05
-9.40091e-07 7.20203e-06 -7.1324e-06
-4.43676e-06 5.19736e-06 -4.96219e-06
-7.40965e-06 9.00208e-06 -8.66439e-06
-5.30109e-06 4.02046e-06 -3.7618e-06
-1.91722e-05 1.2515e-05 -1.22507e-05
2.0098e-06 1.118e-06 -1.02224e-06
4.45147e-06 2.15835e-06 -2.6449e-06
3.67301e-06 2.11887e-06 -1.33719e-06
-8.48541e-07 4.22091e-06 -4.62339e-06
-3.23608e-07 7.28782e-07 -5.84654e-07
-8.91048e-07 3.14938e-07 -2.23812e-07
-3.19587e-06 1.97532e-06 -1.60385e-06
0.00108878 0.000913441 -0.000415575
-7.80856e-07 2.44142e-07 -1.87321e-07
-0.000364679 0.00115281 -5.29333e-05
9.94808e-07 6.3934e-07 -7.51184e-07
5.10227e-07 8.60128e-08 -5.53876e-08
1.20358e-06 2.01354e-06 -2.23591e-06
2.49463e-06 3.67025e-06 -4.25851e-06
-1.98693e-06 3.16938e-07 -4.40536e-07
-4.61956e-07 4.56539e-07 -5.01744e-07
-1.5967e-07 1.91392e-07 -2.06306e-07
1.95974e-06 6.24138e-06 -6.2496e-06
0.000947659 0.00062639 0.000764527
-7.88591e-07 9.69426e-08 -6.66487e-08
-8.49753e-05 -3.21732e-06 -0.000378138
-3.02245e-07 2.8635e-06 -2.86609e-06
1.73584e-06 3.91211e-07 -5.1668e-07
1.94219e-06 5.37628e-06 -4.73734e-06
-7.55665e-07 1.61756e-05 -1.39548e-05
2.03027e-07 7.66268e-06 -7.05343e-06
2.41159e-06 2.11953e-06 -1.28419e-06
-8.44455e-07 3.37318e-08 -7.78618e-08
1.61869e-06 4.83862e-07 -2.69984e-07
4.92021e-06 3.85274e-06 -4.25467e-06
-2.64034e-06 4.40759e-06 -4.25569e-06
3.59283e-06 4.96699e-06 -4.18944e-06
-7.5393e-07 3.2668e-07 -3.26578e-07
1.5926e-06 3.35411e-07 -3.45129e-07
9.966e-07 5.33498e-07 -2.78259e-07
1.77109e-06 1.73782e-06 -2.11715e-06
-8.13408e-08 7.47162e-07 -6.30599e-07
0.00168341 0.00065918 0.000330481
-1.02848e-07 1.85754e-06 -1.6701e-06
-2.72824e-07 3.71329e-08 -3.48058e-08
9.51529e-07 2.28257e-06 -2.52449e-06
-1.53592e-06 2.3824e-06 -2.60803e-06
-1.11947e-06 1.25004e-06 -1.35394e-06
6.44195e-07 1.17836e-06 -1.22728e-06
-3.07837e-06 5.78707e-06 -5.65873e-06
-1.66988e-06 5.09191e-07 -5.92232e-07
9.64705e-05 -0.00119675 0.000471165
-5.99176e-07 -3.02223e-09 -1.13437e-08
0.000113113 -0.000798573 0.000494888
-0.00109547 -0.000397464 5.67354e-05
-0.000348265 0.00033087 -0.000160386
-1.26792e-06 2.46344e-07 -2.78232e-07
5.314e-07 6.77096e-08 -7.22753e-08
-4.59864e-07 2.05943e-06 -2.14417e-06
1.31301e-06 1.05623e-06 -1.69432e-06
3.31789e-06 1.92453e-06 -1.90378e-06
1.89935e-05 1.57307e-05 -1.42807e-05
1.94933e-06 2.96194e-06 -2.34559e-06
2.25093e-06 4.598e-06 -3.62896e-06
5.87738e-08 2.88844e-06 -2.63217e-06
-3.90345e-05 0.000174424 4.6237e-05
-3.20154e-06 4.70438e-06 -4.45272e-06
-9.99945e-07 2.72047e-06 -2.23736e-06
-2.56329e-06 4.04384e-06 -3.90757e-06
-5.27821e-07 1.99116e-07 -1.47765e-07
-5.13306e-06 5.31664e-06 -5.05185e-06
-2.34923e-07 2.31312e-07 -1.60921e-07
1.1369e-06 2.70116e-06 -2.28306e-06
-8.17383e-06 5.02909e-06 -4.64868e-06
5.31726e-06 5.17413e-06 -4.40866e-06
6.5146e-06 5.20756e-06 -4.2332e-06
3.98964e-07 1.71578e-08 -3.28604e-08
-5.0189e-06 2.42085e-06 -2.52574e-06
-8.92861e-06 3.59336e-06 -3.68321e-06
-6.40527e-06 3.4866e-06 -3.92846e-06
-0.000932828 -0.000365094 -0.000953647
4.17243e-07 3.13175e-06 -2.73946e-06
6.02982e-07 2.34653e-07 -2.74403e-07
-2.67384e-06 2.55934e-06 -2.46129e-06
-4.06081e-06 7.42433e-06 -7.12495e-06
-6.65851e-06 2.37384e-06 -2.26282e-06
3.13559e-06 2.03888e-06 -1.60709e-06
3.87787e-06 6.40809e-06 -5.71505e-06
2.87664e-06 6.29525e-06 -5.96197e-06
7.79213e-07 1.15148e-07 -8.12327e-08
0.000199426 0.000125049 0.000203129
3.83652e-07 5.89894e-08 -1.01136e-08
-6.60715e-07 2.44182e-06 -2.39833e-06
-6.04615e-06 1.93983e-06 -2.05893e-06
-0.000105538 -0.000808765 -0.000540202
1.25353e-07 3.78572e-08 -3.6682e-08
-5.08626e-06 2.05409e-06 -1.6108e-06
-1.07903e-06 1.75786e-06 -1.72965e-06
-9.06046e-07 3.226e-06 -3.24657e-06
4.18121e-06 1.78009e-06 -1.68668e-06
3.18348e-06 2.28962e-06 -2.46983e-06
0.000833389 -0.00120369 -8.75512e-05
-1.81934e-07 9.0623e-09 -2.42108e-08
3.7362e-05 0.000138094 -0.000178699
9.86531e-07 2.34409e-06 -1.95938e-06
-2.0133e-06 2.52308e-06 -2.44549e-06
-6.41954e-06 6.42615e-06 -6.19245e-06
3.58545e-06 4.66385e-06 -4.87368e-06
3.33909e-06 1.90715e-06 -1.76105e-06
2.55486e-06 1.95564e-06 -1.65551e-06
3.08378e-06 3.59898e-06 -3.2434e-06
-0.00117069 0.000344589 3.99046e-05
6.5041e-06 2.97032e-06 -2.46254e-06
1.09182e-06 8.54625e-07 -5.28359e-07
-7.52185e-06 1.0808e-05 -1.01287e-05
-1.47696e-06 4.37036e-06 -4.03291e-06
-6.80793e-07 3.95516e-07 -3.17171e-07
-2.15762e-06 4.17577e-07 -3.04156e-07
1.33269e-07 2.36431e-08 -1.98032e-08
-0.000395853 -0.000836472 -3.81355e-05
1.19128e-07 1.87327e-06 -1.83283e-06
-3.50017e-06 1.8027e-06 -1.60805e-06
3.11558e-07 1.7605e-06 -1.85271e-06
0.000528905 -0.000981494 0.000277503
-0.00152098 0.000159053 0.000598841
1.26809e-06 1.18287e-06 -1.36686e-06
2.49543e-06 4.54908e-06 -4.28161e-06
1.16657e-06 5.24458e-07 -3.1152e-07
-3.71137e-07 2.23789e-07 -2.31246e-07
-5.59009e-07 1.96447e-06 -1.67511e-06
6.56117e-07 6.22629e-07 -7.74445e-07
2.12459e-07 2.93093e-06 -2.95871e-06
7.59703e-07 1.974e-06 -2.06414e-06
-1.82829e-06 2.3919e-06 -2.24752e-06
-1.69063e-06 2.89172e-07 -4.63685e-07
-4.36112e-06 1.94771e-06 -1.9838e-06
-2.94672e-06 1.37564e-06 -1.30948e-06
-2.36865e-06 8.83413e-07 -1.00089e-06
-4.15043e-06 3.71656e-06 -3.67092e-06
4.96754e-07 1.83683e-06 -1.52627e-06
1.21231e-06 3.15713e-07 -5.08009e-07
1.58987e-06 6.66229e-07 -1.03962e-06
8.37033e-07 2.97598e-07 -4.22965e-07
-7.23696e-07 1.60826e-06 -1.65755e-06
1.22065e-06 3.27872e-07 -1.73557e-07
-1.73364e-06 3.75797e-06 -3.54963e-06
0.000355835 -0.000702781 -0.000582066
2.87794e-06 4.48736e-06 -4.40345e-06
-2.9143e-06 3.43305e-06 -3.20572e-06
-1.03084e-06 4.6597e-06 -4.14185e-06
0.000318041 -0.000895651 0.000486626
1.8983e-07 1.73409e-07 -1.90156e-07
3.16556e-06 1.85844e-06 -1.55833e-06
4.87051e-06 3.52775e-06 -3.39808e-06
2.47051e-06 2.37489e-06 -2.3837e-06
-2.2012e-06 1.51359e-06 -1.26124e-06
-2.77196e-06 2.32269e-06 -2.08367e-06
-2.37974e-06 1.17992e-06 -9.48367e-07
-1.63783e-06 1.76702e-06 -1.63609e-06
6.46055e-07 1.76231e-07 -4.18844e-07
-1.63936e-06 5.9679e-07 -7.73748e-07
6.54943e-07 3.15461e-07 -1.54142e-07
1.00475e-06 3.93208e-07 -2.09221e-07
-1.54354e-06 2.90964e-06 -2.671e-06
-4.34623e-06 1.12925e-06 -1.24236e-06
-2.70289e-07 2.90429e-06 -2.73977e-06
-2.48668e-06 1.37045e-06 -1.46068e-06
-4.26105e-06 2.5983e-06 -2.43641e-06
0.000444889 -0.000553436 0.000164858
-5.45928e-07 4.37586e-08 -4.02066e-08
9.12893e-06 0.000527416 0.000234413
-2.32613e-06 5.50082e-07 -5.9577e-07
-3.45362e-06 9.45822e-07 -8.2998e-07
-2.6247e-06 2.06947e-06 -2.30322e-06
-1.91966e-06 1.62224e-06 -1.59421e-06
1.81485e-06 1.65917e-06 -1.14605e-06
2.06709e-06 1.32433e-06 -9.06467e-07
-4.24845e-07 2.62919e-08 -4.8177e-09
-1.11833e-06 2.26399e-06 -2.0223e-06
1.05094e-06 2.9165e-06 -2.83638e-06
-3.14785e-06 2.21626e-06 -1.99782e-06
2.43591e-06 1.16903e-06 -1.30299e-06
3.73931e-07 2.96001e-07 -1.97111e-07
2.50586e-06 2.87672e-06 -2.69752e-06
-2.33304e-07 3.89901e-07 -4.27167e-07
-1.61935e-06 1.0881e-06 -1.17793e-06
-4.31209e-06 3.22294e-06 -3.21779e-06
-1.09775e-06 9.85572e-07 -9.33712e-07
6.42901e-07 3.70252e-06 -3.54496e-06
-2.41454e-06 9.20531e-07 -7.63741e-07
2.75986e-06 2.55269e-06 -2.03746e-06
-1.33231e-06 3.05254e-07 -1.94252e-07
-0.000838766 -0.000198846 0.000318245
7.10833e-07 5.69387e-07 -7.64178e-07
2.20318e-06 1.10604e-06 -7.9972e-07
-1.24374e-06 1.05903e-06 -9.90714e-07
-1.64101e-06 6.80451e-07 -4.82119e-07
1.38077e-06 7.92057e-07 -4.37139e-07
2.09098e-07 9.42455e-07 -1.00439e-06
0.000868956 -0.000870603 1.65682e-05
-0.000386398 -6.69395e-05 0.000205235
-1.9585e-06 6.42653e-07 -8.92175e-07
-3.07012e-06 2.05746e-06 -2.04065e-06
6.24105e-07 7.98741e-07 -5.96863e-07
-5.64268e-07 2.82953e-06 -2.7258e-06
-1.34198e-06 9.61823e-07 -9.26976e-07
1.9234e-06 1.12094e-06 -1.43687e-06
-2.44474e-06 3.29818e-06 -3.09908e-06
0.000496146 -1.82479e-05 0.000378524
-3.81042e-06 2.30128e-06 -2.29051e-06
4.27072e-09 2.07139e-07 -1.52145e-07
0.000657489 -0.000604437 -2.90557e-06
-1.44238e-08 3.74909e-07 -4.10384e-07
0.00121271 -0.000196347 -0.000260609
-3.31198e-06 3.04169e-06 -2.94252e-06
-2.07538e-06 1.81903e-06 -1.76073e-06
4.85497e-05 -0.000375474 9.37154e-05
-1.02336e-06 9.38233e-07 -9.1531e-07
-0.000247344 -0.000293366 -0.000242634
4.61717e-07 1.02084e-06 -8.74069e-07
-5.95498e-07 9.41143e-07 -9.13795e-07
-2.4573e-06 5.63437e-07 -7.58927e-07
9.15847e-07 3.30012e-06 -3.06498e-06
1.36004e-09 4.1649e-07 -3.27578e-07
-0.000790784 -0.00080711 -0.000113241
7.89856e-07 1.15945e-06 -9.788e-07
9.66325e-07 3.46488e-07 -2.95092e-07
9.39008e-07 1.0107e-06 -8.80826e-07
-0.00068736 -0.000645187 -2.41311e-05
-3.69306e-06 2.01736e-06 -1.93154e-06
-3.41166e-06 2.59835e-06 -2.48733e-06
7.22546e-07 1.04239e-06 -9.0492e-07
-8.17665e-07 9.75774e-07 -9.25635e-07
-8.25473e-08 6.93928e-08 -1.36285e-08
0.000147946 0.000831396 -0.000410747
-0.00020485 0.000166395 0.000172629
-5.27634e-05 -0.000260769 0.000152826
-3.64361e-06 1.97563e-06 -1.94575e-06
-9.64326e-07 8.25627e-07 -7.81955e-07
-1.86484e-06 6.21926e-07 -4.12892e-07
4.48856e-07 1.00585e-06 -1.03885e-06
7.17554e-05 -0.000238099 0.000154156
7.59519e-05 0.000585812 0.000185286
3.05484e-07 5.96736e-08 -1.78305e-08
4.15535e-07 5.10202e-08 -3.75968e-08
-7.0705e-07 2.01926e-06 -2.05452e-06
6.56154e-08 5.45702e-08 -3.56331e-08
3.21696e-06 0.000548358 -0.00020879
-2.63997e-07 2.44505e-06 -2.46873e-06
-1.34957e-06 4.70489e-07 -4.59633e-07