# vtk DataFile Version 4.2
vtk output
ASCII
DATASET UNSTRUCTURED_GRID

POINTS 343 double
0.00112279 0.00419489 9.73225e-08
0.00217158 0.0049824 0.00217544
0 0.00419538 0.00112517
0.00193018 0.00195435 0.00194223
0.00516875 0.00240582 0.00503292
0.00517151 0.00382912 0.00639826
0.00762287 0.00477341 0.00500052
0.00622539 0.00484907 0.00369284
0.006835 0.00328687 0.00691527
0.0049913 0.00499172 0.00500045
0.0041782 0.0011173 0.00999972
0.00527915 0.00207911 0.0079049
0.00418817 -8.31762e-06 0.00831772
0.00201192 0.00200238 0.00803335
0.00428436 0.00253215 0.0099998
0.00695674 0.00644515 0.00694824
0.0064145 0.00618103 0.00518415
0.00226039 0.00218448 0.00514622
0 0.00143586 0.00417514
0.00159465 0.00346611 0.00403706
0.00683748 0.00319219 0.0031628
0.00774445 0.00221073 0.00506558
0 0.00270918 0.00154168
0.00415878 0.00142768 7.63454e-07
0.00500796 0.00218675 0.00219884
0.00396322 0.00352615 0.00160369
0.00134513 -6.35504e-07 0.00406007
0.00418296 -8.61916e-06 0.0016889
0.00262759 0.00695147 3.60283e-07
0.00193901 0.00805268 0.001945
0.0040891 0.00624761 0.0016457
0.00800346 0.00798369 0.00799897
0.00796378 0.00481333 0.00802398
0.00838884 0.00607709 0.00594975
0.0100019 0.00882199 0.00419431
0.00757863 0.0076336 0.00496516
0.00857029 0.00997729 0.00416833
0.0079798 0.00796881 0.00201767
0.00353546 0.00303611 0.00695984
0.00443635 0.00366124 0.00832463
0.00389143 0.00159987 0.00596938
0.00500591 0.00766738 0.00767739
0.00198978 0.00800777 0.00798971
0.00282835 0.00999701 0.00712731
0.0039176 0.00839895 0.00595817
0 0.00695361 0.00262895
0.00164679 0.00623918 0.00408795
0 0.0040177 0.00850214
0.00231498 0.00498559 0.00766162
0.00143308 0.00417442 0.00999998
0.00717431 0.00711621 0.00999924
0.00611768 0.00596942 0.0084184
0.00205234 0.00794135 0.00474192
0.00304407 0.00694267 0.00646791
0.00158704 0.00607829 0.00592607
0.00998848 0.00578017 0.00831701
0 0.00718191 0.00711644
0.00158516 0.00577337 9.56242e-08
0 0.00577432 0.00158701
0.00999452 0.00715391 0.00711645
0.00286648 0.00334901 0.00999998
0.00996919 0.0014052 0.00417645
0.00803652 0.00194029 0.00198068
0.00838945 0.00349941 0.004
0.00372527 0.0016474 0.00412866
0.00150981 0.00999966 0.00581505
0.00280847 -3.98608e-06 0.0071279
0.00610854 0.00417008 0.00837687
0.0099949 0.00724595 0.00419663
0.00852687 -2.51168e-05 0.00416923
0.00334255 0.00286928 4.97834e-07
0.00269897 0.00153852 0.00999998
0.0028178 -4.36733e-06 0.00283224
0.00479746 0.00519333 0.00755484
0.00315831 0.00314596 0.0031676
0 0.00849157 0.00581511
0.00486497 0.00366867 0.00378681
0.00153734 0.00270862 7.37221e-08
0.00579964 0.00831465 0.00999929
0.00598599 0.00998791 0.0085059
0.00421491 0.00999338 0.00831782
0.00401781 0.00849765 0.00999941
0.0100003 0.00846332 0.00581539
0.00314826 0.00683329 0.00315112
0 0.00748929 0.00137438
0.00137399 0.00748899 3.19361e-08
0 0.00287343 0.00335182
0 0.00580816 0.00831736
0 0.00429792 0.00253898
0.00253448 0.00429572 3.58495e-07
0.00143373 0.00581914 0.00999998
0.0051758 0.00646769 0.0064007
0.0036032 0.00650904 0.00823417
0.00692991 0.00261108 0.00999948
0.0079972 0.00193718 0.00803564
0.00694091 -1.86158e-05 0.00308313
0.00600025 0.00165091 0.00361367
0.00997545 0.00284375 0.00335335
0 0.00140616 0.00256446
0.0063745 0.0082152 0.00642125
0.00579717 0.00142179 1.44431e-06
0.00602293 0.00353958 0.00160432
0.00315827 0.00999608 0.00582536
0.0085649 0.00997747 0.00583344
0.00255435 0.00140267 3.96039e-07
0.00594954 -1.47654e-05 0.00149568
0.00628254 0.00827526 0.00361791
0.00852161 -2.49277e-05 0.00583402
0.00618517 0.00165895 0.00636565
0.00140199 0.00256404 0.01
0.0071144 0.00716595 1.30651e-06
0.00516732 0.00768132 0.00216957
0.00593829 0.00608262 0.00160285
0 0.00686719 0.00578184
0.00996904 0.00137528 0.0025663
0.00177218 0.00360981 0.00640793
0.0100003 0.00845832 0.00262497
0.00840474 0.00616802 0.00413366
0.00598649 0.0099872 0.00149463
0.00693947 -1.83547e-05 0.00692677
0.00996921 0.00140502 0.00582038
0.00837865 0.00355137 0.0060614
0.00150155 -8.2801e-07 0.00581523
0 0.0013659 0.00748679
0.00136335 -7.13292e-07 0.00752892
0.0099931 0.00683912 0.00578221
0.00581859 0.00847995 9.78189e-07
0 0.0075208 0.00859127
0.00136509 0.00748639 0.00999992
0.00423252 0.00819967 0.00362856
0.00859774 0.00997732 0.00751195
0.010001 0.00860214 0.00752613
0.0057526 0.0015742 0.00999952
0.00724374 0.00417163 0.00999942
0 0.0057735 0.00666667
0.00137062 0.0099996 0.00752895
0 0.00863025 0.00752641
0.00855352 -2.55804e-05 0.00250911
0.0099935 0.00692523 0.0026303
0.00845263 0.00632048 0.00216418
0.00849906 0.00580251 0.00999929
0.00746268 0.00135463 0.00999935
0.00855434 -2.51994e-05 0.00751204
0.00996889 0.00133547 0.00748683
0 0.00143551 0.00581971
0.00594952 -1.43301e-05 0.00850573
0.00419235 -8.70167e-06 0.00340046
0.00792151 0.00468798 0.00203578
0.00998169 0.00426894 0.00254056
0.00423294 0.00999312 0.00666653
0.00283807 0.00999704 0.00283209
0.0013069 -6.88307e-07 0.00241835
0 0.00727418 0.00419576
0.00998822 0.00574542 0.00666679
0.00698077 0.00998356 0.00308223
0.00750869 0.00861939 0.00999923
0 0.00574334 0.00336387
0 0.0043297 0.00416652
0.00686101 0.00576988 0.00999946
0.00997609 0.00299292 0.00691548
0.00420448 -8.51918e-06 0.00666685
0.00248096 0.00999746 0.00861152
0.00746004 0.00134554 1.85652e-06
0.00576981 0.00665651 0.00999935
0.00999609 0.0074929 0.00859071
0.00860525 0.00753188 0.00999921
0.00689619 0.00300559 1.74694e-06
0.00336031 0.00574017 6.30444e-07
0.00752979 0.00861208 1.27127e-06
0.00752321 0.00998108 0.00138834
0.00577954 0.00685645 1.04879e-06
0.00696978 0.00635582 0.00303423
0.00748198 -2.12538e-05 0.00138942
0.0028798 0.0049969 0.00999989
0.00432465 0.00582811 0.00999959
0.0043202 0.00416092 0.00999968
0.007523 0.00998169 0.00861558
0.00246383 -3.39792e-06 0.00861169
0.00998802 0.00571493 0.00336515
0 0.00302218 0.00691532
0.00998047 0.00398917 0.0085018
0.0084846 0.00399485 1.9542e-06
0.00997477 0.00267912 0.00154369
0 0.00244495 0.00857025
0.00244594 0.00856794 0.0099997
0.00748198 -2.07873e-05 0.00861537
0.00846335 0.00260106 0.00999928
0.00883359 0.00417043 0.00999927
0.00567727 0.00998861 0.00583334
0.00518603 0.00757495 0.00503258
0.00564968 0.00998855 0.00421547
0.00697923 0.00998392 0.00692644
0.00302033 0.00691315 0.00999969
0.0041585 0.00432411 9.594e-07
0.00282069 -4.53856e-06 0.00440495
0.00313663 -5.07573e-06 0.00582576
0.00998129 0.00416611 0.00112714
0.00363963 0.00833274 0.00158873
0.00998184 0.0043009 0.00416767
0.00665918 0.00575937 1.48208e-06
0.00859712 0.00997692 0.00250799
0 0.00848692 0.00262374
0.00135253 0.00999962 0.0040599
0 0.00885053 0.00419359
0.00419743 0.00884368 7.11278e-07
0.00421112 0.00999288 0.00168818
0.00499078 0.00478369 0.00237958
0.00720611 0.00450473 1.70976e-06
0.00561498 -1.35675e-05 0.00421629
0.00564263 -1.35121e-05 0.00583377
0.00131414 0.00999964 0.00241807
0.00854579 0.00242091 2.06953e-06
0.00998269 0.00449331 0.00721958
0.00712273 0.00998322 0.00500046
0.00572816 0.00335302 0.00999956
0.00244537 -3.50495e-06 0.00135692
0.00997355 0.00241528 0.00856998
0.0023919 0.00478964 0.00500006
0.0058214 0.00431871 1.46629e-06
0.00830795 0.00578684 1.69348e-06
0.00548603 0.00998945 0.00722035
0.0099818 0.00430149 0.00583386
0.00541 0.00998923 0.00277598
0.00708246 -1.89786e-05 0.00500118
0.00284034 0.00999705 0.00440448
0 0.00452174 0.00721958
0.0045197 0.00721391 0.00999947
0.00545202 -1.26381e-05 0.00722027
0.00359842 0.00507013 0.0035968
0.00425803 0.00999303 0.00500826
0.00422879 -8.70048e-06 0.0050089
0.00366626 0.00521311 0.00617474
0 0.005744 0.00499998
0 0.00433013 0.00583333
0.00499449 0.00573644 1.16711e-06
0.00498138 0.00633162 0.00355427
0.00537587 -1.28006e-05 0.00277695
0.00998804 0.00571579 0.0050007
0.00368838 0.00640405 0.00484408
0.00573459 0.00499021 0.00999951
0.00998822 0.00574569 0.00158874
0 0.00666667 0
0.00858904 0.00749846 1.48276e-06
0.00331634 -6.74125e-06 1.26927e-06
0 0.01 0.00666667
0.00500669 0.00999066 0.00999965
0 0.00288419 0.00499914
0.00999594 0.00746078 0.00137602
0.00999236 0.00663803 1.79695e-06
0 0.005 0.01
0.00498418 0.00287486 1.12832e-06
0 0.005 0
0.00996285 -3.17032e-05 0.00333508
0.010007 0.00997107 0.00666652
0.00419522 0.00726849 7.82541e-07
0.0099754 0.00285475 0.00500008
0.00497592 -1.20691e-05 1.69209e-06
0 0 0.00666667
0.00379023 0.00361226 0.00522654
0.00497591 -1.15124e-05 0.00999922
0.00996288 -3.14142e-05 0.00666701
0 0 0.005
0.0087883 0.00997589 0.00122127
0.0100017 0.00875098 0.00122158
0.00996283 -3.15e-05 0.00500107
0.00998495 0.00497088 2.02627e-06
0.00121568 0.00121918 1.01565e-08
0 0.00122008 0.00122008
0 0.00333333 0.01
0 0.00666667 0.01
0.00878305 0.00875626 1.34117e-06
0.0100071 0.00997071 0.00333413
0.00422139 0.00999298 0.00339979
0.0099923 0.00663888 0.0099993
0 0.00333333 0
0 0.00122008 0.00877992
0.00121456 -9.10023e-07 0.00877971
0.00121581 0.00121947 0.0100001
0.00878811 0.00997644 0.00877949
0.00122001 0.0087794 0.00999991
0 0.00877992 0.00877992
0.0100018 0.0087517 0.00877935
0.0066756 0.00998431 7.64584e-07
0.00996818 0.00118885 0.00122232
0.00122116 0.00999942 0.00878017
0.00878298 0.00875698 0.00999927
0.00998486 0.00497181 0.00999933
0 0 0.00333333
0.00663646 -1.80242e-05 2.17484e-06
0.00874449 -2.66772e-05 0.00122246
0.00120591 -9.17807e-07 0.00121217
0 0.00877992 0.00122008
0.00122049 0.00877939 1.26013e-07
0.00121285 0.00999946 0.00121145
0.00996819 0.00118946 0.00877944
0.00874977 0.00119469 0.00999918
0.00663658 -1.74689e-05 0.00999892
0.00874979 0.00119405 2.23446e-06
0.00874455 -2.61512e-05 0.00877919
0.00997764 0.00330352 2.20338e-06
0.00333828 0.00999504 0.01
0.00246317 0.00999763 0.0013565
0.00667513 0.00998497 0.00999961
0.00997748 0.00330448 0.00999931
0 0.01 0.005
0.00262547 0.00848444 3.90419e-07
0.010007 0.0099709 0.00500039
0 0.01 0.00333333
0 0.00166667 0
0.00996287 -3.19777e-05 0.00166899
0 0.00166667 0.01
0 0.00833333 0
0.00999984 0.00830442 1.54862e-06
0.00996291 -3.15034e-05 0.00833285
0.0100071 0.00997049 0.00166794
0.010007 0.00997109 0.0083329
0.00166912 0.00999837 0.01
0 0.01 0.00833333
0.0083421 0.00997759 1.11642e-06
0.00829897 -2.50903e-05 2.38697e-06
0.00829902 -2.4533e-05 0.00999894
0.00834174 0.00997812 0.0099994
0 0 0.00833333
0.0099998 0.00830524 0.00999926
0.00165779 -2.3212e-06 3.72883e-07
0 0 0.00166667
0.00333971 0.00999527 4.26472e-07
0.00997015 0.00163623 0.00999924
0.00997023 0.00163556 2.33415e-06
0.00165827 -1.9247e-06 0.0100001
0.00166958 0.0099987 1.67474e-07
0 0.01 0.00166667
0.0100072 0.00997108 0.00999936
0 0 0.01
0.0100072 0.00997033 1.26767e-06
0.00996287 -3.16073e-05 0.00999893
0 0.01 0.01
0.00996289 -3.22275e-05 2.60955e-06
0 0.01 0
0 0 0
0.00500798 0.00999014 6.03098e-07
0.00331643 -6.0466e-06 0.00999946
0 0.00833333 0.01

CELLS 343 686
1 0
1 1
1 2
1 3
1 4
1 5
1 6
1 7
1 8
1 9
1 10
1 11
1 12
1 13
1 14
1 15
1 16
1 17
1 18
1 19
1 20
1 21
1 22
1 23
1 24
1 25
1 26
1 27
1 28
1 29
1 30
1 31
1 32
1 33
1 34
1 35
1 36
1 37
1 38
1 39
1 40
1 41
1 42
1 43
1 44
1 45
1 46
1 47
1 48
1 49
1 50
1 51
1 52
1 53
1 54
1 55
1 56
1 57
1 58
1 59
1 60
1 61
1 62
1 63
1 64
1 65
1 66
1 67
1 68
1 69
1 70
1 71
1 72
1 73
1 74
1 75
1 76
1 77
1 78
1 79
1 80
1 81
1 82
1 83
1 84
1 85
1 86
1 87
1 88
1 89
1 90
1 91
1 92
1 93
1 94
1 95
1 96
1 97
1 98
1 99
1 100
1 101
1 102
1 103
1 104
1 105
1 106
1 107
1 108
1 109
1 110
1 111
1 112
1 113
1 114
1 115
1 116
1 117
1 118
1 119
1 120
1 121
1 122
1 123
1 124
1 125
1 126
1 127
1 128
1 129
1 130
1 131
1 132
1 133
1 134
1 135
1 136
1 137
1 138
1 139
1 140
1 141
1 142
1 143
1 144
1 145
1 146
1 147
1 148
1 149
1 150
1 151
1 152
1 153
1 154
1 155
1 156
1 157
1 158
1 159
1 160
1 161
1 162
1 163
1 164
1 165
1 166
1 167
1 168
1 169
1 170
1 171
1 172
1 173
1 174
1 175
1 176
1 177
1 178
1 179
1 180
1 181
1 182
1 183
1 184
1 185
1 186
1 187
1 188
1 189
1 190
1 191
1 192
1 193
1 194
1 195
1 196
1 197
1 198
1 199
1 200
1 201
1 202
1 203
1 204
1 205
1 206
1 207
1 208
1 209
1 210
1 211
1 212
1 213
1 214
1 215
1 216
1 217
1 218
1 219
1 220
1 221
1 222
1 223
1 224
1 225
1 226
1 227
1 228
1 229
1 230
1 231
1 232
1 233
1 234
1 235
1 236
1 237
1 238
1 239
1 240
1 241
1 242
1 243
1 244
1 245
1 246
1 247
1 248
1 249
1 250
1 251
1 252
1 253
1 254
1 255
1 256
1 257
1 258
1 259
1 260
1 261
1 262
1 263
1 264
1 265
1 266
1 267
1 268
1 269
1 270
1 271
1 272
1 273
1 274
1 275
1 276
1 277
1 278
1 279
1 280
1 281
1 282
1 283
1 284
1 285
1 286
1 287
1 288
1 289
1 290
1 291
1 292
1 293
1 294
1 295
1 296
1 297
1 298
1 299
1 300
1 301
1 302
1 303
1 304
1 305
1 306
1 307
1 308
1 309
1 310
1 311
1 312
1 313
1 314
1 315
1 316
1 317
1 318
1 319
1 320
1 321
1 322
1 323
1 324
1 325
1 326
1 327
1 328
1 329
1 330
1 331
1 332
1 333
1 334
1 335
1 336
1 337
1 338
1 339
1 340
1 341
1 342

CELL_TYPES 343
1
1
1
1
1
1
1
1
1
1
1
1
1
1
1
1
1
1
1
1
1
1
1
1
1
1
1
1
1
1
1
1
1
1
1
1
1
1
1
1
1
1
1
1
1
1
1
1
1
1
1
1
1
1
1
1
1
1
1
1
1
1
1
1
1
1
1
1
1
1
1
1
1
1
1
1
1
1
1
1
1
1
1
1
1
1
1
1
1
1
1
1
1
1
1
1
1
1
1
1
1
1
1
1
1
1
1
1
1
1
1
1
1
1
1
1
1
1
1
1
1
1
1
1
1
1
1
1
1
1
1
1
1
1
1
1
1
1
1
1
1
1
1
1
1
1
1
1
1
1
1
1
1
1
1
1
1
1
1
1
1
1
1
1
1
1
1
1
1
1
1
1
1
1
1
1
1
1
1
1
1
1
1
1
1
1
1
1
1
1
1
1
1
1
1
1
1
1
1
1
1
1
1
1
1
1
1
1
1
1
1
1
1
1
1
1
1
1
1
1
1
1
1
1
1
1
1
1
1
1
1
1
1
1
1
1
1
1
1
1
1
1
1
1
1
1
1
1
1
1
1
1
1
1
1
1
1
1
1
1
1
1
1
1
1
1
1
1
1
1
1
1
1
1
1
1
1
1
1
1
1
1
1
1
1
1
1
1
1
1
1
1
1
1
1
1
1
1
1
1
1
1
1
1
1
1
1
1
1
1
1
1
1
1
1
1
1
1
1
1
1
1
1
1
1
1
1
1
1
1
1
1
1
1
1
1
1
1
1
1
1
1
1

POINT_DATA 343
FIELD FieldData 8

NodeID_(#) 1 343 int
0
1
2
3
4
5
6
7
8
9
10
11
12
13
14
15
16
17
18
19
20
21
22
23
24
25
26
27
28
29
30
31
32
33
34
35
36
37
38
39
40
41
42
43
44
45
46
47
48
49
50
51
52
53
54
55
56
57
58
59
60
61
62
63
64
65
66
67
68
69
70
71
72
73
74
75
76
77
78
79
80
81
82
83
84
85
86
87
88
89
90
91
92
93
94
95
96
97
98
99
100
101
102
103
104
105
106
107
108
109
110
111
112
113
114
115
116
117
118
119
120
121
122
123
124
125
126
127
128
129
130
131
132
133
134
135
136
137
138
139
140
141
142
143
144
145
146
147
148
149
150
151
152
153
154
155
156
157
158
159
160
161
162
163
164
165
166
167
168
169
170
171
172
173
174
175
176
177
178
179
180
181
182
183
184
185
186
187
188
189
190
191
192
193
194
195
196
197
198
199
200
201
202
203
204
205
206
207
208
209
210
211
212
213
214
215
216
217
218
219
220
221
222
223
224
225
226
227
228
229
230
231
232
233
234
235
236
237
238
239
240
241
242
243
244
245
246
247
248
249
250
251
252
253
254
255
256
257
258
259
260
261
262
263
264
265
266
267
268
269
270
271
272
273
274
275
276
277
278
279
280
281
282
283
284
285
286
287
288
289
290
291
292
293
294
295
296
297
298
299
300
301
302
303
304
305
306
307
308
309
310
311
312
313
314
315
316
317
318
319
320
321
322
323
324
325
326
327
328
329
330
331
332
333
334
335
336
337
338
339
340
341
342

Component_(#) 1 343 int
0
0
0
0
0
0
0
0
0
0
0
0
0
0
0
0
0
0
0
0
0
0
0
0
0
0
0
0
0
0
0
0
0
0
0
0
0
0
0
0
0
0
0
0
0
0
0
0
0
0
0
0
0
0
0
0
0
0
0
0
0
0
0
0
0
0
0
0
0
0
0
0
0
0
0
0
0
0
0
0
0
0
0
0
0
0
0
0
0
0
0
0
0
0
0
0
0
0
0
0
0
0
0
0
0
0
0
0
0
0
0
0
0
0
0
0
0
0
0
0
0
0
0
0
0
0
0
0
0
0
0
0
0
0
0
0
0
0
0
0
0
0
0
0
0
0
0
0
0
0
0
0
0
0
0
0
0
0
0
0
0
0
0
0
0
0
0
0
0
0
0
0
0
0
0
0
0
0
0
0
0
0
0
0
0
0
0
0
0
0
0
0
0
0
0
0
0
0
0
0
0
0
0
0
0
0
0
0
0
0
0
0
0
0
0
0
0
0
0
0
0
0
0
0
0
0
0
0
0
0
0
0
0
0
0
0
0
0
0
0
0
0
0
0
0
0
0
0
0
0
0
0
0
0
0
0
0
0
0
0
0
0
0
0
0
0
0
0
0
0
0
0
0
0
0
0
0
0
0
0
0
0
0
0
0
0
0
0
0
0
0
0
0
0
0
0
0
0
0
0
0
0
0
0
0
0
0
0
0
0
0
0
0
0
0
0
0
0
0
0
0
0
0
0
0
0
0
0
0
0
0
0
0
0
0
0
0
0
0
0
0
0
0

NodalMass_(kg) 1 343 double
3.15563e-06
1.41304e-05
2.20912e-06
1.71484e-05
8.42e-06
9.09306e-06
9.93033e-06
7.52198e-06
6.81096e-06
5.58223e-06
3.10888e-06
1.07575e-05
4.87011e-06
1.64955e-05
3.0246e-06
8.05984e-06
6.703e-06
1.0877e-05
4.18978e-06
8.16106e-06
6.14143e-06
1.17902e-05
2.23114e-06
4.25176e-06
1.09915e-05
7.41467e-06
4.21871e-06
3.92484e-06
3.08766e-06
1.31268e-05
7.72627e-06
1.65404e-05
1.19037e-05
7.29666e-06
3.81683e-06
1.11001e-05
3.81317e-06
1.39137e-05
6.37414e-06
8.00975e-06
7.6712e-06
1.18847e-05
1.6399e-05
2.78633e-06
8.93599e-06
2.58087e-06
7.57362e-06
4.23241e-06
1.31286e-05
3.80168e-06
2.7746e-06
7.16776e-06
1.21307e-05
5.11765e-06
8.19728e-06
4.58094e-06
2.79503e-06
3.26126e-06
4.12443e-06
2.11915e-06
3.35177e-06
3.61669e-06
1.56838e-05
7.33679e-06
8.24695e-06
5.00369e-06
2.82625e-06
7.20276e-06
3.26815e-06
4.18751e-06
2.02785e-06
2.42152e-06
3.11835e-06
5.97459e-06
5.87101e-06
4.09374e-06
5.45463e-06
2.28825e-06
4.49759e-06
4.38192e-06
4.50892e-06
4.39234e-06
4.27273e-06
5.32031e-06
1.53201e-06
2.38869e-06
2.02885e-06
4.38798e-06
3.17972e-06
3.14298e-06
4.61567e-06
5.87645e-06
8.18088e-06
2.48341e-06
1.53815e-05
3.49683e-06
7.35227e-06
2.01314e-06
2.0408e-06
7.98183e-06
4.41293e-06
7.1389e-06
1.20123e-06
5.03343e-06
1.61257e-06
4.12601e-06
8.73748e-06
4.37849e-06
7.97173e-06
2.13557e-06
3.38137e-06
9.48623e-06
7.40262e-06
1.80226e-06
2.10222e-06
7.98889e-06
1.87983e-06
7.44814e-06
4.19782e-06
2.37156e-06
4.31705e-06
6.06441e-06
4.30905e-06
2.16843e-06
1.8986e-06
1.81294e-06
3.89762e-06
2.44299e-06
1.65628e-06
8.01374e-06
1.64513e-06
2.3931e-06
3.01363e-06
2.99431e-06
1.36541e-06
1.87293e-06
2.09622e-06
1.94762e-06
1.87618e-06
6.37913e-06
4.58628e-06
2.02767e-06
1.61999e-06
2.41284e-06
3.8865e-06
4.44973e-06
2.29839e-06
1.17349e-05
3.11811e-06
1.354e-06
3.45063e-06
1.81846e-06
2.9382e-06
1.37381e-06
2.41464e-06
2.10451e-06
2.63927e-06
2.14166e-06
1.7943e-06
3.19976e-06
1.36989e-06
2.43489e-06
2.08158e-06
1.3601e-06
2.17203e-06
1.89924e-06
3.16996e-06
2.6119e-06
2.37677e-06
1.60225e-06
1.90684e-06
5.49206e-06
1.87878e-06
3.14313e-06
2.97301e-06
1.18454e-06
1.89263e-06
2.04166e-06
2.73572e-06
2.42405e-06
3.23083e-06
3.19752e-06
3.2142e-06
1.94492e-06
1.61196e-06
1.86876e-06
3.22435e-06
2.1114e-06
2.96917e-06
6.15288e-06
2.3097e-06
2.39729e-06
2.38029e-06
2.64508e-06
1.66557e-06
1.82377e-06
2.06583e-06
5.73271e-06
2.08467e-06
2.18324e-06
2.43522e-06
3.1188e-06
3.17316e-06
2.05447e-06
1.9592e-06
3.05718e-06
6.44327e-06
2.08796e-06
2.72615e-06
2.15709e-06
1.86812e-06
2.0028e-06
2.10999e-06
2.88994e-06
2.3222e-06
2.3979e-06
1.97629e-06
6.4127e-06
2.16225e-06
3.29198e-06
2.10223e-06
2.66566e-06
1.94415e-06
2.91865e-06
2.58116e-06
2.11703e-06
2.09534e-06
1.91719e-06
7.06046e-06
2.25203e-06
2.06378e-06
6.28159e-06
2.12147e-06
2.90924e-06
2.12921e-06
6.4487e-06
1.41701e-06
2.0682e-06
6.58062e-06
2.52584e-06
2.39732e-06
7.42191e-07
2.22368e-06
7.06751e-07
7.00657e-07
8.93749e-07
2.53536e-06
2.26535e-06
1.33607e-06
7.84725e-07
2.32303e-06
6.06694e-07
6.68276e-07
6.84307e-07
2.51242e-06
2.31629e-06
7.8367e-07
6.80839e-07
6.22692e-06
6.7471e-07
6.65305e-07
7.01158e-07
1.8232e-06
1.90695e-06
6.86722e-07
7.04792e-07
1.86445e-06
2.28572e-06
6.8045e-07
7.16005e-07
1.82373e-06
6.01079e-07
2.02791e-06
7.4579e-07
5.74423e-07
1.80052e-06
1.454e-06
2.2702e-06
1.80636e-06
2.15356e-06
1.79089e-06
1.79456e-06
6.8231e-07
2.24737e-06
1.45239e-06
1.79556e-06
6.97875e-07
6.24265e-07
6.62717e-07
1.44627e-06
1.40138e-06
2.15258e-06
1.82851e-06
1.3994e-06
1.43932e-06
2.19226e-06
6.97732e-07
1.77726e-06
1.79162e-06
6.54258e-07
7.3397e-07
2.34895e-06
7.10392e-07
6.56982e-07
6.26314e-07
2.18926e-06
6.12493e-07
6.03901e-07
5.92831e-07
5.12031e-07
5.11667e-07
4.9467e-07
4.97016e-07
4.96269e-07
5.33079e-07
4.94191e-07
4.97855e-07
4.86862e-07
4.90626e-07
4.94649e-07
4.94954e-07
4.91922e-07
4.89615e-07
4.96354e-07
4.95189e-07
4.82188e-07
1.10854e-06
5.3299e-07
5.44763e-07
5.36655e-07
5.15417e-07
5.01772e-07
5.53774e-07
5.53774e-07
5.53774e-07
5.53774e-07
5.53774e-07
5.53774e-07
5.50785e-07
5.50785e-07
7.45291e-07
7.11668e-07
4.9897e-07

NodalForce_(N) 3 343 double
-2.10781e-07 2.60119e-08 -8.00144e-09
-1.60694e-06 4.13582e-07 -3.59367e-07
0.000465999 0.00044181 0.000447543
-2.22809e-07 4.9608e-07 -3.42458e-07
2.01423e-06 2.28513e-06 -1.7274e-06
2.05045e-06 2.12885e-06 -2.00537e-06
-1.34629e-07 5.12899e-06 -4.82685e-06
-1.27714e-06 2.55063e-06 -2.36391e-06
2.6845e-06 3.03091e-06 -2.76722e-06
-1.5806e-07 1.14054e-06 -1.0606e-06
1.99825e-06 6.87215e-07 -5.89811e-07
5.89012e-06 3.24038e-06 -2.79463e-06
3.03473e-06 1.15263e-06 -8.38898e-07
2.4223e-06 4.37206e-07 -4.64784e-07
1.63128e-06 5.75686e-07 -6.10811e-07
5.85797e-08 3.29917e-06 -3.37009e-06
-1.09055e-06 2.33295e-06 -2.24598e-06
8.06833e-07 4.08678e-07 -3.55617e-07
-0.00138924 0.000765166 -0.000237093
-4.0831e-08 8.30918e-08 -6.8071e-08
-2.05676e-07 2.77485e-06 -2.38003e-06
3.92993e-06 7.01493e-06 -5.97231e-06
-0.000583704 -0.00177832 -0.000900232
-4.75609e-07 9.42119e-07 -6.74157e-07
1.2876e-09 3.06506e-06 -2.63135e-06
-1.26288e-06 1.03924e-06 -1.16091e-06
3.38718e-07 3.82754e-08 -5.7602e-08
5.7719e-07 8.71621e-07 -6.85729e-07
-1.07588e-06 1.35787e-07 -1.79099e-07
-2.36951e-06 1.86655e-07 -3.10605e-07
-2.80178e-06 8.5111e-07 -1.24799e-06
-1.24575e-06 9.21026e-06 -9.34987e-06
4.34749e-06 6.6714e-06 -6.65563e-06
-5.9895e-07 4.4551e-06 -4.31647e-06
-2.73869e-06 3.21976e-06 -3.00823e-06
-4.58541e-06 5.55703e-06 -5.26201e-06
-3.2766e-06 2.49018e-06 -2.28265e-06
-1.17419e-05 7.73601e-06 -7.46643e-06
1.24165e-06 6.89232e-07 -6.23227e-07
2.71905e-06 1.32947e-06 -1.59114e-06
2.28554e-06 1.31977e-06 -8.2073e-07
-5.67296e-07 2.59409e-06 -2.79103e-06
-1.81596e-07 4.43177e-07 -3.55907e-07
-5.47556e-07 1.95242e-07 -1.36131e-07
-1.96225e-06 1.21527e-06 -9.79645e-07
0.00103694 0.000856694 -0.000405222
-4.74431e-07 1.49293e-07 -1.16383e-07
-0.000303877 0.00110963 -2.07562e-05
6.20558e-07 3.90523e-07 -4.5886e-07
3.128e-07 5.26284e-08 -3.24438e-08
7.02742e-07 1.24158e-06 -1.33797e-06
1.48608e-06 2.25992e-06 -2.56033e-06
-1.20598e-06 1.91968e-07 -2.72936e-07
-2.78004e-07 2.78274e-07 -3.07867e-07
-9.21069e-08 1.16885e-07 -1.27279e-07
1.16471e-06 3.86685e-06 -3.75952e-06
0.000888336 0.000617225 0.000737441
-4.82407e-07 5.91443e-08 -4.02474e-08
-9.17306e-05 -7.73224e-06 -0.000363532
-2.02565e-07 1.7732e-06 -1.72831e-06
1.05323e-06 2.40261e-07 -3.08385e-07
1.23342e-06 3.35208e-06 -2.87447e-06
-2.48731e-07 1.00749e-05 -8.52427e-06
1.72309e-07 4.75805e-06 -4.28953e-06
1.51694e-06 1.32053e-06 -7.95024e-07
-5.13687e-07 2.1614e-08 -4.7988e-08
1.00696e-06 3.03569e-07 -1.65097e-07
2.99231e-06 2.3798e-06 -2.55832e-06
-1.62377e-06 2.7302e-06 -2.58065e-06
2.26339e-06 3.10646e-06 -2.54742e-06
-4.56077e-07 2.02374e-07 -1.98901e-07
9.71495e-07 2.0829e-07 -2.05655e-07
6.26659e-07 3.36093e-07 -1.72279e-07
1.07665e-06 1.0686e-06 -1.27879e-06
-3.98113e-08 4.60009e-07 -3.90317e-07
0.00158826 0.000629478 0.000334928
-4.18152e-08 1.14831e-06 -1.02639e-06
-1.66933e-07 2.26517e-08 -2.09927e-08
5.33989e-07 1.40529e-06 -1.50758e-06
-9.86215e-07 1.47253e-06 -1.56759e-06
-7.06968e-07 7.72821e-07 -8.15053e-07
3.68919e-07 7.244e-07 -7.29774e-07
-1.92067e-06 3.58327e-06 -3.42013e-06
-1.01861e-06 3.1161e-07 -3.65961e-07
7.72342e-05 -0.00116089 0.000440948
-3.6636e-07 -1.95234e-09 -6.69987e-09
0.000110578 -0.000758935 0.00047039
-0.000972754 -0.000373674 6.18791e-05
-0.000325232 0.000307148 -0.000162296
-7.73875e-07 1.51457e-07 -1.69138e-07
3.25183e-07 4.11383e-08 -4.26248e-08
-2.90491e-07 1.2658e-06 -1.30223e-06
7.91579e-07 6.44976e-07 -1.01963e-06
2.02348e-06 1.19479e-06 -1.13994e-06
1.16586e-05 9.7875e-06 -8.59766e-06
1.24636e-06 1.85456e-06 -1.43535e-06
1.4469e-06 2.86464e-06 -2.22537e-06
5.64273e-08 1.79711e-06 -1.59892e-06
-4.54299e-05 0.000151454 2.84199e-05
-2.0044e-06 2.90053e-06 -2.69621e-06
-5.61268e-07 1.69812e-06 -1.36573e-06
-1.51819e-06 2.5085e-06 -2.38925e-06
-3.2402e-07 1.23067e-07 -9.04167e-08
-3.20022e-06 3.29109e-06 -3.05535e-06
-1.39246e-07 1.44444e-07 -9.79815e-08
7.53406e-07 1.69216e-06 -1.3984e-06
-5.01867e-06 3.10338e-06 -2.84028e-06
3.30658e-06 3.23546e-06 -2.66976e-06
4.03092e-06 3.24218e-06 -2.5658e-06
2.44698e-07 1.0588e-08 -1.94222e-08
-3.06384e-06 1.49515e-06 -1.53678e-06
-5.46295e-06 2.2145e-06 -2.25343e-06
-3.90142e-06 2.14811e-06 -2.39904e-06
-0.000862125 -0.000362564 -0.000895159
2.8801e-07 1.95372e-06 -1.66598e-06
3.76417e-07 1.43908e-07 -1.69244e-07
-1.64097e-06 1.58551e-06 -1.49448e-06
-2.48419e-06 4.59444e-06 -4.3305e-06
-4.08565e-06 1.46955e-06 -1.38008e-06
1.94038e-06 1.27517e-06 -9.71082e-07
2.412e-06 3.99432e-06 -3.45682e-06
1.77481e-06 3.90819e-06 -3.60886e-06
4.84805e-07 7.29797e-08 -5.03642e-08
0.000212142 0.000148439 0.000174467
2.38008e-07 3.70211e-08 -6.40806e-09
-4.12904e-07 1.5126e-06 -1.44982e-06
-3.69838e-06 1.19812e-06 -1.25275e-06
-0.000109469 -0.000786638 -0.000497206
7.67262e-08 2.26711e-08 -2.16824e-08
-3.11526e-06 1.26509e-06 -9.91002e-07
-6.85511e-07 1.0882e-06 -1.04211e-06
-5.84953e-07 1.99711e-06 -1.95546e-06
2.55679e-06 1.10833e-06 -1.00862e-06
1.92908e-06 1.41686e-06 -1.47869e-06
0.00073442 -0.00118349 -9.68599e-05
-1.10185e-07 5.94484e-09 -1.50537e-08
4.57148e-05 0.000106121 -0.000200459
6.40038e-07 1.46698e-06 -1.19544e-06
-1.22973e-06 1.56397e-06 -1.48545e-06
-3.9087e-06 3.9787e-06 -3.77247e-06
2.14217e-06 2.88449e-06 -2.921e-06
2.0425e-06 1.18839e-06 -1.05429e-06
1.5777e-06 1.2228e-06 -9.97395e-07
1.90118e-06 2.24342e-06 -1.95504e-06
-0.00113156 0.000326719 6.11854e-05
4.00494e-06 1.85726e-06 -1.47886e-06
6.89081e-07 5.36268e-07 -3.25616e-07
-4.52294e-06 6.69975e-06 -6.17966e-06
-8.78809e-07 2.71403e-06 -2.4512e-06
-4.21291e-07 2.44703e-07 -1.92312e-07
-1.32391e-06 2.5847e-07 -1.87175e-07
8.37211e-08 1.54038e-08 -1.25424e-08
-0.000350117 -0.000795163 -5.1796e-05
6.75853e-08 1.16106e-06 -1.10616e-06
-2.15328e-06 1.11602e-06 -9.8053e-07
1.58586e-07 1.08635e-06 -1.10922e-06
0.000526655 -0.000932951 0.000273222
-0.00150979 0.000148857 0.000568506
7.5948e-07 7.29509e-07 -8.18308e-07
1.53507e-06 2.82897e-06 -2.58381e-06
7.23728e-07 3.28569e-07 -1.89422e-07
-2.30614e-07 1.39192e-07 -1.38979e-07
-3.10288e-07 1.22589e-06 -1.02157e-06
3.89904e-07 3.83074e-07 -4.62758e-07
1.03208e-07 1.81441e-06 -1.77832e-06
4.35612e-07 1.21936e-06 -1.23696e-06
-1.08505e-06 1.48754e-06 -1.37054e-06
-1.03147e-06 1.76965e-07 -2.82421e-07
-2.66833e-06 1.20433e-06 -1.20612e-06
-1.8087e-06 8.52398e-07 -7.97341e-07
-1.44526e-06 5.44442e-07 -6.09162e-07
-2.53322e-06 2.29471e-06 -2.24154e-06
3.3804e-07 1.15018e-06 -9.33226e-07
7.32426e-07 1.92531e-07 -3.02859e-07
9.58432e-07 4.0824e-07 -6.19994e-07
5.07558e-07 1.82745e-07 -2.52623e-07
-4.71684e-07 9.95246e-07 -9.96207e-07
7.54674e-07 2.04874e-07 -1.04846e-07
-1.05256e-06 2.33045e-06 -2.15539e-06
0.00033137 -0.000713284 -0.000592333
1.75017e-06 2.786e-06 -2.64797e-06
-1.74611e-06 2.13277e-06 -1.95162e-06
-5.86418e-07 2.90032e-06 -2.52128e-06
0.000308444 -0.000868489 0.000460996
1.11573e-07 1.06478e-07 -1.12835e-07
1.94859e-06 1.16195e-06 -9.35594e-07
2.96896e-06 2.19229e-06 -2.03598e-06
1.49618e-06 1.47259e-06 -1.42864e-06
-1.36357e-06 9.36098e-07 -7.65569e-07
-1.7046e-06 1.42967e-06 -1.27258e-06
-1.46475e-06 7.2997e-07 -5.79376e-07
-1.02771e-06 1.09321e-06 -9.87888e-07
3.87432e-07 1.07031e-07 -2.49077e-07
-9.95739e-07 3.68033e-07 -4.7173e-07
4.10082e-07 1.98086e-07 -9.57377e-08
6.26885e-07 2.46985e-07 -1.29354e-07
-9.22362e-07 1.80817e-06 -1.62524e-06
-2.66024e-06 6.95966e-07 -7.60188e-07
-1.55535e-07 1.8031e-06 -1.66203e-06
-1.51118e-06 8.47374e-07 -8.89828e-07
-2.62165e-06 1.60991e-06 -1.48166e-06
0.000398581 -0.000506461 0.000182426
-3.33052e-07 2.73932e-08 -2.48604e-08
2.12288e-06 0.000510841 0.000200582
-1.42357e-06 3.39773e-07 -3.62342e-07
-2.11879e-06 5.85253e-07 -5.07402e-07
-1.58742e-06 1.27584e-06 -1.41088e-06
-1.15795e-06 1.00583e-06 -9.71457e-07
1.14221e-06 1.03918e-06 -7.02946e-07
1.285e-06 8.2893e-07 -5.51363e-07
-2.60062e-07 1.63853e-08 -3.14579e-09
-6.53343e-07 1.40998e-06 -1.23194e-06
6.39102e-07 1.80975e-06 -1.71048e-06
-1.94896e-06 1.37166e-06 -1.21277e-06
1.48171e-06 7.23012e-07 -7.79078e-07
2.39476e-07 1.87349e-07 -1.21254e-07
1.5348e-06 1.79e-06 -1.62231e-06
-1.36878e-07 2.38678e-07 -2.63815e-07
-9.77799e-07 6.73876e-07 -7.18222e-07
-2.61605e-06 1.9981e-06 -1.95718e-06
-6.86168e-07 6.09289e-07 -5.64323e-07
3.97281e-07 2.2984e-06 -2.14391e-06
-1.48289e-06 5.69757e-07 -4.66691e-07
1.72507e-06 1.5975e-06 -1.23941e-06
-8.16954e-07 1.88884e-07 -1.19922e-07
-0.000812035 -0.000185057 0.000288705
4.21672e-07 3.49266e-07 -4.55454e-07
1.36212e-06 6.92054e-07 -4.82868e-07
-7.52258e-07 6.49821e-07 -6.12278e-07
-1.00962e-06 4.2101e-07 -2.95111e-07
8.63245e-07 4.96749e-07 -2.69549e-07
1.35204e-07 5.77642e-07 -6.15095e-07
0.000830099 -0.00085297 1.24077e-05
-0.000333943 -6.14736e-05 0.000207731
-1.19262e-06 3.9574e-07 -5.43683e-07
-1.87275e-06 1.26468e-06 -1.25357e-06
3.98793e-07 5.0044e-07 -3.66374e-07
-3.45962e-07 1.75433e-06 -1.65076e-06
-8.14459e-07 5.89088e-07 -5.71174e-07
1.16081e-06 6.90243e-07 -8.59038e-07
-1.4813e-06 2.04603e-06 -1.8847e-06
0.000454518 -1.35119e-05 0.000345732
-2.32446e-06 1.42401e-06 -1.39194e-06
7.4004e-09 1.30198e-07 -9.33048e-08
0.000637091 -0.000578862 -3.4598e-06
-1.78176e-08 2.3186e-07 -2.45317e-07
0.00114989 -0.000216295 -0.000247364
-2.02191e-06 1.88523e-06 -1.78907e-06
-1.26194e-06 1.12775e-06 -1.06948e-06
6.28247e-05 -0.000364022 7.36386e-05
-6.10766e-07 5.82945e-07 -5.58327e-07
-0.000254628 -0.000296722 -0.000249751
2.9506e-07 6.38823e-07 -5.3121e-07
-3.74131e-07 5.83392e-07 -5.51148e-07
-1.50093e-06 3.46374e-07 -4.61861e-07
5.76539e-07 2.05323e-06 -1.85668e-06
1.00611e-08 2.61452e-07 -2.00651e-07
-0.000770335 -0.000796114 -0.000106999
4.97871e-07 7.13361e-07 -6.02761e-07
5.93045e-07 2.17624e-07 -1.75451e-07
5.82696e-07 6.32393e-07 -5.31753e-07
-0.000663986 -0.000621199 -2.54677e-05
-2.26727e-06 1.25075e-06 -1.17449e-06
-2.08926e-06 1.61061e-06 -1.51175e-06
4.52905e-07 6.52287e-07 -5.48233e-07
-4.9319e-07 6.06286e-07 -5.62576e-07
-5.00395e-08 4.3089e-08 -8.20878e-09
0.000161787 0.00079314 -0.000374116
-0.000177862 0.000151009 0.000146597
-2.15471e-05 -0.000255678 0.000120826
-2.22907e-06 1.22374e-06 -1.18186e-06
-5.94707e-07 5.12236e-07 -4.74325e-07
-1.14534e-06 3.84824e-07 -2.53455e-07
2.64696e-07 6.22793e-07 -6.23156e-07
5.1359e-05 -0.000218984 0.000132896
8.04818e-05 0.000583802 0.000178823
1.89061e-07 3.74547e-08 -1.04924e-08
2.55431e-07 3.14026e-08 -2.24407e-08
-4.65479e-07 1.2501e-06 -1.23474e-06
4.04247e-08 3.34123e-08 -2.09508e-08
3.74662e-06 0.000518216 -0.000192851
-1.90174e-07 1.51341e-06 -1.48351e-06