# vtk DataFile Version 4.2
vtk output
ASCII
DATASET UNSTRUCTURED_GRID

POINTS 343 double
0.00115257 0.0041957 -8.65943e-07
0.00222956 0.00498378 0.00217348
0 0.00419538 0.00112517
0.00197975 0.00195542 0.00194058
0.00530634 0.00240442 0.00502758
0.00531331 0.00382855 0.00639102
0.00784476 0.00476716 0.00499166
0.00640229 0.0048463 0.00368791
0.00702739 0.00328252 0.00690429
0.00513002 0.00499145 0.00499523
0.00429051 0.00111583 0.00999207
0.00542124 0.0020771 0.00789591
0.00429646 -9.95263e-06 0.00831071
0.00206417 0.00200375 0.00803151
0.00440227 0.00253195 0.00999203
0.00716381 0.00644051 0.00693659
0.00660198 0.00617771 0.00517658
0.00231894 0.00218582 0.00514396
0 0.00143586 0.00417514
0.00163634 0.00346738 0.00403544
0.00702891 0.00318763 0.00315832
0.00796154 0.00220371 0.0050566
0 0.00270918 0.00154168
0.00426954 0.00142611 -6.80273e-07
0.00514157 0.00218482 0.00219661
0.00407098 0.00352667 0.00160179
0.00137845 2.27527e-07 0.00405877
0.00428997 -1.03776e-05 0.00168707
0.00270201 0.00695285 -9.69895e-07
0.00199243 0.00805408 0.00194333
0.00420485 0.00624864 0.00164367
0.00825271 0.00797438 0.00798325
0.00819908 0.00480613 0.00800836
0.00864302 0.00606783 0.00593777
0.0103268 0.00880408 0.00418346
0.00781054 0.00762576 0.00495626
0.00884738 0.0099617 0.0041593
0.00822748 0.00795896 0.00201373
0.00362959 0.00303701 0.00695558
0.00455842 0.00366176 0.0083174
0.00399155 0.00159949 0.00596506
0.00515382 0.00766621 0.00766933
0.00204459 0.00800931 0.00798755
0.0029122 0.00999687 0.00712394
0.00403129 0.00839871 0.00595357
0 0.00695361 0.00262895
0.00169115 0.00624032 0.00408644
0 0.0040177 0.00850214
0.00237752 0.00498704 0.00765915
0.00147177 0.00417541 0.00999846
0.00739508 0.00711009 0.00998308
0.00629746 0.00596696 0.00840677
0.00210852 0.00794298 0.00473991
0.0031284 0.00694444 0.0064647
0.00162983 0.00607948 0.00592448
0.0103014 0.00576595 0.00829685
0 0.00718191 0.00711644
0.00162826 0.00577446 -1.17441e-06
0 0.00577432 0.00158701
0.0103127 0.00713806 0.00709866
0.00294613 0.00335023 0.00999552
0.0102631 0.00139197 0.00416628
0.00826247 0.00193237 0.00197747
0.00863314 0.00349077 0.00399232
0.00382059 0.0016471 0.00412524
0.00155231 0.0100008 0.00581348
0.00287794 -3.96034e-06 0.00712495
0.00628229 0.00416786 0.00836545
0.0103124 0.00722913 0.00418582
0.00876314 -3.40239e-05 0.0041612
0.00343349 0.00286998 -9.47368e-07
0.00277156 0.00153906 0.00999575
0.00288719 -4.49274e-06 0.00282972
0.0049323 0.0051936 0.00754722
0.00324156 0.0031472 0.00316462
0 0.00849157 0.00581511
0.004997 0.00366827 0.00378282
0.00157774 0.0027098 -1.21653e-06
0.00597885 0.00831111 0.00998655
0.00617524 0.00998188 0.00849423
0.00434385 0.00999132 0.00831088
0.00413898 0.00849702 0.00999162
0.0103238 0.00844613 0.00580055
0.0032353 0.00683487 0.00314823
0 0.00748929 0.00137438
0.00141187 0.00749027 -1.17481e-06
0 0.00287343 0.00335182
0 0.00580816 0.00831736
0 0.00429792 0.00253898
0.00260421 0.00429691 -9.70303e-07
0.00147296 0.00582031 0.00999845
0.00532479 0.00646697 0.00639357
0.00370532 0.0065107 0.00822858
0.00712727 0.00260642 0.00998469
0.00822349 0.00192976 0.00802007
0.00712637 -2.47002e-05 0.00307911
0.00616121 0.00164737 0.00360953
0.0102749 0.00283056 0.00334519
0 0.00140616 0.00256446
0.0065679 0.00821043 0.00641153
0.00595417 0.00141793 4.04935e-07
0.00619086 0.00353669 0.00160222
0.00325169 0.00999554 0.00582184
0.0088419 0.00996211 0.00582097
0.00262142 0.00140287 -8.78346e-07
0.00610623 -1.88318e-05 0.00149393
0.006473 0.0082704 0.00361274
0.0087581 -3.37071e-05 0.00582199
0.00635215 0.00165526 0.0063566
0.00143905 0.00256517 0.00999856
0.00733154 0.00715933 -1.42708e-07
0.00531987 0.00767942 0.00216679
0.00611145 0.0060804 0.00160059
0 0.00686719 0.00578184
0.0102631 0.00136193 0.00255973
0.00181886 0.00361107 0.00640623
0.0103241 0.00844065 0.00261765
0.00865915 0.00615861 0.00412539
0.00617477 0.00998029 0.00149206
0.00712582 -2.40392e-05 0.00691519
0.0102635 0.00139181 0.0058057
0.00862284 0.00354309 0.00604907
0.00153927 3.21882e-08 0.00581377
0 0.0013659 0.00748679
0.00139775 1.28607e-07 0.0075277
0.010309 0.00682318 0.00576775
0.00599718 0.00847556 -7.07542e-08
0 0.0075208 0.00859127
0.0014028 0.00748775 0.00999835
0.00435532 0.00819899 0.00362481
0.00887698 0.0099619 0.00749581
0.0103263 0.00858484 0.00750719
0.00591071 0.0015709 0.0099876
0.00745586 0.0041668 0.0099836
0 0.0057735 0.00666667
0.00140921 0.0100005 0.00752774
0 0.00863025 0.00752641
0.00879092 -3.49923e-05 0.00250461
0.0103098 0.00690854 0.00262303
0.0087097 0.00631022 0.00215975
0.00875879 0.00579329 0.00997979
0.00767331 0.00134761 0.00998285
0.00879303 -3.43153e-05 0.00749611
0.0102639 0.00132239 0.00746839
0 0.00143551 0.00581971
0.00610731 -1.81082e-05 0.00849426
0.00429776 -1.04251e-05 0.00339746
0.00815358 0.00468023 0.0020322
0.0102869 0.00425539 0.00253416
0.00436168 0.00999056 0.00666057
0.00292204 0.00999688 0.00282939
0.00133933 1.13924e-07 0.00241721
0 0.00727418 0.00419576
0.0102999 0.00573139 0.00665002
0.00720254 0.00997356 0.00307714
0.0077462 0.0086108 0.0099822
0 0.00574334 0.00336387
0 0.0043297 0.00416652
0.00706656 0.00576587 0.00998438
0.0102769 0.00298023 0.00689808
0.00431091 -1.01597e-05 0.0066612
0.00255498 0.00999727 0.00860808
0.00766811 0.00133824 6.63339e-07
0.00594262 0.0066545 0.00998694
0.0103169 0.00747709 0.00856978
0.00887604 0.00752105 0.0099792
0.00709098 0.00300062 5.96072e-07
0.00345531 0.00574169 -6.90634e-07
0.00776645 0.00860258 -3.92912e-07
0.00776458 0.00996873 0.00138502
0.00595158 0.00685381 -7.07147e-08
0.00717687 0.00635056 0.00302959
0.00768517 -2.88264e-05 0.00138732
0.00296128 0.00499866 0.00999523
0.00444952 0.00582928 0.00999114
0.00444207 0.00416191 0.0099915
0.00776509 0.00997036 0.0086
0.00252576 -3.19503e-06 0.00860861
0.0102986 0.00570084 0.0033567
0 0.00302218 0.00691532
0.0102861 0.0039765 0.00848144
0.00873555 0.00398555 8.66298e-07
0.0102742 0.00266561 0.00153942
0 0.00244495 0.00857025
0.00251788 0.00856868 0.00999557
0.00768698 -2.80029e-05 0.00859986
0.00871015 0.00259274 0.00997998
0.00909909 0.00416106 0.00997893
0.00585275 0.00998292 0.0058253
0.00533774 0.00757336 0.00502669
0.00582415 0.00998271 0.00420993
0.00720109 0.00997445 0.00691436
0.00310761 0.00691512 0.00999438
0.00427476 0.00432468 -1.48024e-07
0.00289025 -4.94353e-06 0.0044024
0.00321406 -5.50856e-06 0.00582265
0.0102869 0.00415229 0.00112357
0.00374585 0.0083325 0.00158668
0.0102868 0.00428733 0.00415702
0.0068557 0.00575502 4.48044e-07
0.00887569 0.00996084 0.00250203
0 0.00848692 0.00262374
0.00139035 0.0100006 0.00405848
0 0.00885053 0.00419359
0.00432422 0.00884196 -5.25268e-07
0.00433968 0.00999012 0.00168572
0.00512985 0.00478347 0.00237686
0.00741583 0.00449892 6.05965e-07
0.00576053 -1.73089e-05 0.00421187
0.00578919 -1.71775e-05 0.00582636
0.00135106 0.0100006 0.00241671
0.00879293 0.00241141 1.07986e-06
0.0102896 0.00448005 0.00720144
0.00734938 0.00997289 0.00499174
0.00589017 0.00335127 0.00998789
0.0025059 -3.29856e-06 0.00135536
0.0102733 0.00240246 0.00854964
0.00245606 0.00479101 0.00499777
0.00598705 0.00431648 5.37627e-07
0.00855971 0.00577695 2.46588e-07
0.00565639 0.00998456 0.00721171
0.0102872 0.00428812 0.00581928
0.0055773 0.00998392 0.00277203
0.00727246 -2.4959e-05 0.00499346
0.00292402 0.00999699 0.00440167
0 0.00452174 0.00721958
0.00465405 0.00721391 0.00999038
0.00559408 -1.58404e-05 0.00721144
0.00369608 0.00507133 0.00359352
0.00438678 0.00999024 0.00500356
0.00433467 -1.03442e-05 0.00500483
0.00376637 0.00521446 0.00617072
0 0.005744 0.00499998
0 0.00433013 0.00583333
0.00513872 0.00573622 2.31258e-07
0.00512337 0.00633131 0.0035504
0.00551521 -1.62343e-05 0.002774
0.0102987 0.00570213 0.00498795
0.00379043 0.00640541 0.00484041
0.00590134 0.00498923 0.00998761
0.0102998 0.00573111 0.00158435
0 0.00666667 0
0.00885814 0.00748674 -2.22681e-07
0.00340146 -8.09697e-06 4.617e-07
0 0.01 0.00666667
0.00516445 0.0099862 0.00998976
0 0.00288419 0.00499914
0.0103155 0.00744357 0.00137202
0.0103093 0.00662224 -4.80271e-07
0 0.005 0.01
0.00512108 0.00287354 -5.23555e-08
0 0.005 0
0.0102523 -4.38309e-05 0.00332709
0.0103395 0.0099492 0.00664918
0.0043182 0.00726854 -3.5445e-07
0.0102747 0.00284216 0.00498757
0.00510664 -1.53389e-05 8.48341e-07
0 0 0.00666667
0.00389105 0.00361328 0.00522265
0.00510836 -1.4689e-05 0.00998903
0.010253 -4.33632e-05 0.0066502
0 0 0.005
0.00907494 0.00995872 0.00121762
0.0103276 0.00873221 0.00121751
0.0102523 -4.34612e-05 0.00498857
0.0102951 0.00495637 2.2176e-07
0.00124693 0.00121974 -1.05202e-06
0 0.00122008 0.00122008
0 0.00333333 0.01
0 0.00666667 0.01
0.00906516 0.00874175 -6.29022e-07
0.0103389 0.00994836 0.00332473
0.00434913 0.00999019 0.00339609
0.010311 0.00662407 0.00997575
0 0.00333333 0
0 0.00122008 0.00877992
0.00124532 -3.61481e-07 0.00877821
0.00124752 0.00122026 0.0099989
0.00907545 0.00996028 0.00876075
0.001254 0.00878032 0.00999846
0 0.00877992 0.00877992
0.0103287 0.00873397 0.00875805
0.00688856 0.00997453 -1.38997e-06
0.0102619 0.00117538 0.00121882
0.00125591 0.00999997 0.00877901
0.00906568 0.00874349 0.00997882
0.0102964 0.0049583 0.0099759
0 0 0.00333333
0.00681502 -2.37378e-05 1.2881e-06
0.00898953 -3.67908e-05 0.0012202
0.00123598 -3.5413e-07 0.00121149
0 0.00877992 0.00122008
0.00125456 0.00878028 -8.87305e-07
0.0012473 0.0100001 0.00121019
0.0102634 0.00117634 0.00875838
0.00900164 0.00118459 0.00997894
0.00681739 -2.30754e-05 0.00998409
0.00899972 0.00118374 1.32587e-06
0.00899114 -3.59711e-05 0.00876027
0.010281 0.00328985 6.29927e-07
0.00344086 0.00999338 0.00999455
0.0025362 0.00999767 0.00135461
0.00688973 0.00997613 0.0099854
0.0102823 0.00329223 0.00997608
0 0.01 0.005
0.00270211 0.00848516 -9.39419e-07
0.0103389 0.00994867 0.0049876
0 0.01 0.00333333
0 0.00166667 0
0.0102526 -4.45653e-05 0.00166476
0 0.00166667 0.01
0 0.00833333 0
0.0103249 0.00828597 -5.34037e-07
0.010254 -4.38386e-05 0.00831239
0.0103395 0.00994807 0.00166267
0.0103404 0.00994953 0.00831233
0.00171856 0.00999814 0.00999792
0 0.01 0.00833333
0.0086139 0.00996158 -1.42441e-06
0.00853006 -3.44506e-05 1.44796e-06
0.00853219 -3.3875e-05 0.00997968
0.00861429 0.00996327 0.00998052
0 0 0.00833333
0.0103261 0.00828833 0.0099756
0.00169903 -2.15315e-06 -6.60413e-07
0 0 0.00166667
0.003442 0.00999394 -1.08093e-06
0.0102684 0.00162275 0.00997592
0.0102669 0.00162175 8.61406e-07
0.00170035 -1.61287e-06 0.00999802
0.00171872 0.00999901 -1.06439e-06
0 0.01 0.00166667
0.0103413 0.00994975 0.00997605
0 0 0.01
0.0103405 0.00994791 -1.45916e-06
0.0102548 -4.43186e-05 0.00997527
0 0.01 0.01
0.0102532 -4.4944e-05 1.23072e-06
0 0.01 0
0 0 0
0.00516459 0.0099851 -1.02139e-06
0.00340302 -7.24752e-06 0.00999334
0 0.00833333 0.01

CELLS 343 686
1 0
1 1
1 2
1 3
1 4
1 5
1 6
1 7
1 8
1 9
1 10
1 11
1 12
1 13
1 14
1 15
1 16
1 17
1 18
1 19
1 20
1 21
1 22
1 23
1 24
1 25
1 26
1 27
1 28
1 29
1 30
1 31
1 32
1 33
1 34
1 35
1 36
1 37
1 38
1 39
1 40
1 41
1 42
1 43
1 44
1 45
1 46
1 47
1 48
1 49
1 50
1 51
1 52
1 53
1 54
1 55
1 56
1 57
1 58
1 59
1 60
1 61
1 62
1 63
1 64
1 65
1 66
1 67
1 68
1 69
1 70
1 71
1 72
1 73
1 74
1 75
1 76
1 77
1 78
1 79
1 80
1 81
1 82
1 83
1 84
1 85
1 86
1 87
1 88
1 89
1 90
1 91
1 92
1 93
1 94
1 95
1 96
1 97
1 98
1 99
1 100
1 101
1 102
1 103
1 104
1 105
1 106
1 107
1 108
1 109
1 110
1 111
1 112
1 113
1 114
1 115
1 116
1 117
1 118
1 119
1 120
1 121
1 122
1 123
1 124
1 125
1 126
1 127
1 128
1 129
1 130
1 131
1 132
1 133
1 134
1 135
1 136
1 137
1 138
1 139
1 140
1 141
1 142
1 143
1 144
1 145
1 146
1 147
1 148
1 149
1 150
1 151
1 152
1 153
1 154
1 155
1 156
1 157
1 158
1 159
1 160
1 161
1 162
1 163
1 164
1 165
1 166
1 167
1 168
1 169
1 170
1 171
1 172
1 173
1 174
1 175
1 176
1 177
1 178
1 179
1 180
1 181
1 182
1 183
1 184
1 185
1 186
1 187
1 188
1 189
1 190
1 191
1 192
1 193
1 194
1 195
1 196
1 197
1 198
1 199
1 200
1 201
1 202
1 203
1 204
1 205
1 206
1 207
1 208
1 209
1 210
1 211
1 212
1 213
1 214
1 215
1 216
1 217
1 218
1 219
1 220
1 221
1 222
1 223
1 224
1 225
1 226
1 227
1 228
1 229
1 230
1 231
1 232
1 233
1 234
1 235
1 236
1 237
1 238
1 239
1 240
1 241
1 242
1 243
1 244
1 245
1 246
1 247
1 248
1 249
1 250
1 251
1 252
1 253
1 254
1 255
1 256
1 257
1 258
1 259
1 260
1 261
1 262
1 263
1 264
1 265
1 266
1 267
1 268
1 269
1 270
1 271
1 272
1 273
1 274
1 275
1 276
1 277
1 278
1 279
1 280
1 281
1 282
1 283
1 284
1 285
1 286
1 287
1 288
1 289
1 290
1 291
1 292
1 293
1 294
1 295
1 296
1 297
1 298
1 299
1 300
1 301
1 302
1 303
1 304
1 305
1 306
1 307
1 308
1 309
1 310
1 311
1 312
1 313
1 314
1 315
1 316
1 317
1 318
1 319
1 320
1 321
1 322
1 323
1 324
1 325
1 326
1 327
1 328
1 329
1 330
1 331
1 332
1 333
1 334
1 335
1 336
1 337
1 338
1 339
1 340
1 341
1 342

CELL_TYPES 343
1
1
1
1
1
1
1
1
1
1
1
1
1
1
1
1
1
1
1
1
1
1
1
1
1
1
1
1
1
1
1
1
1
1
1
1
1
1
1
1
1
1
1
1
1
1
1
1
1
1
1
1
1
1
1
1
1
1
1
1
1
1
1
1
1
1
1
1
1
1
1
1
1
1
1
1
1
1
1
1
1
1
1
1
1
1
1
1
1
1
1
1
1
1
1
1
1
1
1
1
1
1
1
1
1
1
1
1
1
1
1
1
1
1
1
1
1
1
1
1
1
1
1
1
1
1
1
1
1
1
1
1
1
1
1
1
1
1
1
1
1
1
1
1
1
1
1
1
1
1
1
1
1
1
1
1
1
1
1
1
1
1
1
1
1
1
1
1
1
1
1
1
1
1
1
1
1
1
1
1
1
1
1
1
1
1
1
1
1
1
1
1
1
1
1
1
1
1
1
1
1
1
1
1
1
1
1
1
1
1
1
1
1
1
1
1
1
1
1
1
1
1
1
1
1
1
1
1
1
1
1
1
1
1
1
1
1
1
1
1
1
1
1
1
1
1
1
1
1
1
1
1
1
1
1
1
1
1
1
1
1
1
1
1
1
1
1
1
1
1
1
1
1
1
1
1
1
1
1
1
1
1
1
1
1
1
1
1
1
1
1
1
1
1
1
1
1
1
1
1
1
1
1
1
1
1
1
1
1
1
1
1
1
1
1
1
1
1
1
1
1
1
1
1
1
1
1
1
1
1
1
1
1
1
1
1
1
1
1
1
1
1
1

POINT_DATA 343
FIELD FieldData 8

NodeID_(#) 1 343 int
0
1
2
3
4
5
6
7
8
9
10
11
12
13
14
15
16
17
18
19
20
21
22
23
24
25
26
27
28
29
30
31
32
33
34
35
36
37
38
39
40
41
42
43
44
45
46
47
48
49
50
51
52
53
54
55
56
57
58
59
60
61
62
63
64
65
66
67
68
69
70
71
72
73
74
75
76
77
78
79
80
81
82
83
84
85
86
87
88
89
90
91
92
93
94
95
96
97
98
99
100
101
102
103
104
105
106
107
108
109
110
111
112
113
114
115
116
117
118
119
120
121
122
123
124
125
126
127
128
129
130
131
132
133
134
135
136
137
138
139
140
141
142
143
144
145
146
147
148
149
150
151
152
153
154
155
156
157
158
159
160
161
162
163
164
165
166
167
168
169
170
171
172
173
174
175
176
177
178
179
180
181
182
183
184
185
186
187
188
189
190
191
192
193
194
195
196
197
198
199
200
201
202
203
204
205
206
207
208
209
210
211
212
213
214
215
216
217
218
219
220
221
222
223
224
225
226
227
228
229
230
231
232
233
234
235
236
237
238
239
240
241
242
243
244
245
246
247
248
249
250
251
252
253
254
255
256
257
258
259
260
261
262
263
264
265
266
267
268
269
270
271
272
273
274
275
276
277
278
279
280
281
282
283
284
285
286
287
288
289
290
291
292
293
294
295
296
297
298
299
300
301
302
303
304
305
306
307
308
309
310
311
312
313
314
315
316
317
318
319
320
321
322
323
324
325
326
327
328
329
330
331
332
333
334
335
336
337
338
339
340
341
342

Component_(#) 1 343 int
0
0
0
0
0
0
0
0
0
0
0
0
0
0
0
0
0
0
0
0
0
0
0
0
0
0
0
0
0
0
0
0
0
0
0
0
0
0
0
0
0
0
0
0
0
0
0
0
0
0
0
0
0
0
0
0
0
0
0
0
0
0
0
0
0
0
0
0
0
0
0
0
0
0
0
0
0
0
0
0
0
0
0
0
0
0
0
0
0
0
0
0
0
0
0
0
0
0
0
0
0
0
0
0
0
0
0
0
0
0
0
0
0
0
0
0
0
0
0
0
0
0
0
0
0
0
0
0
0
0
0
0
0
0
0
0
0
0
0
0
0
0
0
0
0
0
0
0
0
0
0
0
0
0
0
0
0
0
0
0
0
0
0
0
0
0
0
0
0
0
0
0
0
0
0
0
0
0
0
0
0
0
0
0
0
0
0
0
0
0
0
0
0
0
0
0
0
0
0
0
0
0
0
0
0
0
0
0
0
0
0
0
0
0
0
0
0
0
0
0
0
0
0
0
0
0
0
0
0
0
0
0
0
0
0
0
0
0
0
0
0
0
0
0
0
0
0
0
0
0
0
0
0
0
0
0
0
0
0
0
0
0
0
0
0
0
0
0
0
0
0
0
0
0
0
0
0
0
0
0
0
0
0
0
0
0
0
0
0
0
0
0
0
0
0
0
0
0
0
0
0
0
0
0
0
0
0
0
0
0
0
0
0
0
0
0
0
0
0
0
0
0
0
0
0
0
0
0
0
0
0
0
0
0
0
0
0
0
0
0
0
0
0

NodalMass_(kg) 1 343 double
3.15563e-06
1.41304e-05
2.20912e-06
1.71484e-05
8.42e-06
9.09306e-06
9.93033e-06
7.52198e-06
6.81096e-06
5.58223e-06
3.10888e-06
1.07575e-05
4.87011e-06
1.64955e-05
3.0246e-06
8.05984e-06
6.703e-06
1.0877e-05
4.18978e-06
8.16106e-06
6.14143e-06
1.17902e-05
2.23114e-06
4.25176e-06
1.09915e-05
7.41467e-06
4.21871e-06
3.92484e-06
3.08766e-06
1.31268e-05
7.72627e-06
1.65404e-05
1.19037e-05
7.29666e-06
3.81683e-06
1.11001e-05
3.81317e-06
1.39137e-05
6.37414e-06
8.00975e-06
7.6712e-06
1.18847e-05
1.6399e-05
2.78633e-06
8.93599e-06
2.58087e-06
7.57362e-06
4.23241e-06
1.31286e-05
3.80168e-06
2.7746e-06
7.16776e-06
1.21307e-05
5.11765e-06
8.19728e-06
4.58094e-06
2.79503e-06
3.26126e-06
4.12443e-06
2.11915e-06
3.35177e-06
3.61669e-06
1.56838e-05
7.33679e-06
8.24695e-06
5.00369e-06
2.82625e-06
7.20276e-06
3.26815e-06
4.18751e-06
2.02785e-06
2.42152e-06
3.11835e-06
5.97459e-06
5.87101e-06
4.09374e-06
5.45463e-06
2.28825e-06
4.49759e-06
4.38192e-06
4.50892e-06
4.39234e-06
4.27273e-06
5.32031e-06
1.53201e-06
2.38869e-06
2.02885e-06
4.38798e-06
3.17972e-06
3.14298e-06
4.61567e-06
5.87645e-06
8.18088e-06
2.48341e-06
1.53815e-05
3.49683e-06
7.35227e-06
2.01314e-06
2.0408e-06
7.98183e-06
4.41293e-06
7.1389e-06
1.20123e-06
5.03343e-06
1.61257e-06
4.12601e-06
8.73748e-06
4.37849e-06
7.97173e-06
2.13557e-06
3.38137e-06
9.48623e-06
7.40262e-06
1.80226e-06
2.10222e-06
7.98889e-06
1.87983e-06
7.44814e-06
4.19782e-06
2.37156e-06
4.31705e-06
6.06441e-06
4.30905e-06
2.16843e-06
1.8986e-06
1.81294e-06
3.89762e-06
2.44299e-06
1.65628e-06
8.01374e-06
1.64513e-06
2.3931e-06
3.01363e-06
2.99431e-06
1.36541e-06
1.87293e-06
2.09622e-06
1.94762e-06
1.87618e-06
6.37913e-06
4.58628e-06
2.02767e-06
1.61999e-06
2.41284e-06
3.8865e-06
4.44973e-06
2.29839e-06
1.17349e-05
3.11811e-06
1.354e-06
3.45063e-06
1.81846e-06
2.9382e-06
1.37381e-06
2.41464e-06
2.10451e-06
2.63927e-06
2.14166e-06
1.7943e-06
3.19976e-06
1.36989e-06
2.43489e-06
2.08158e-06
1.3601e-06
2.17203e-06
1.89924e-06
3.16996e-06
2.6119e-06
2.37677e-06
1.60225e-06
1.90684e-06
5.49206e-06
1.87878e-06
3.14313e-06
2.97301e-06
1.18454e-06
1.89263e-06
2.04166e-06
2.73572e-06
2.42405e-06
3.23083e-06
3.19752e-06
3.2142e-06
1.94492e-06
1.61196e-06
1.86876e-06
3.22435e-06
2.1114e-06
2.96917e-06
6.15288e-06
2.3097e-06
2.39729e-06
2.38029e-06
2.64508e-06
1.66557e-06
1.82377e-06
2.06583e-06
5.73271e-06
2.08467e-06
2.18324e-06
2.43522e-06
3.1188e-06
3.17316e-06
2.05447e-06
1.9592e-06
3.05718e-06
6.44327e-06
2.08796e-06
2.72615e-06
2.15709e-06
1.86812e-06
2.0028e-06
2.10999e-06
2.88994e-06
2.3222e-06
2.3979e-06
1.97629e-06
6.4127e-06
2.16225e-06
3.29198e-06
2.10223e-06
2.66566e-06
1.94415e-06
2.91865e-06
2.58116e-06
2.11703e-06
2.09534e-06
1.91719e-06
7.06046e-06
2.25203e-06
2.06378e-06
6.28159e-06
2.12147e-06
2.90924e-06
2.12921e-06
6.4487e-06
1.41701e-06
2.0682e-06
6.58062e-06
2.52584e-06
2.39732e-06
7.42191e-07
2.22368e-06
7.06751e-07
7.00657e-07
8.93749e-07
2.53536e-06
2.26535e-06
1.33607e-06
7.84725e-07
2.32303e-06
6.06694e-07
6.68276e-07
6.84307e-07
2.51242e-06
2.31629e-06
7.8367e-07
6.80839e-07
6.22692e-06
6.7471e-07
6.65305e-07
7.01158e-07
1.8232e-06
1.90695e-06
6.86722e-07
7.04792e-07
1.86445e-06
2.28572e-06
6.8045e-07
7.16005e-07
1.82373e-06
6.01079e-07
2.02791e-06
7.4579e-07
5.74423e-07
1.80052e-06
1.454e-06
2.2702e-06
1.80636e-06
2.15356e-06
1.79089e-06
1.79456e-06
6.8231e-07
2.24737e-06
1.45239e-06
1.79556e-06
6.97875e-07
6.24265e-07
6.62717e-07
1.44627e-06
1.40138e-06
2.15258e-06
1.82851e-06
1.3994e-06
1.43932e-06
2.19226e-06
6.97732e-07
1.77726e-06
1.79162e-06
6.54258e-07
7.3397e-07
2.34895e-06
7.10392e-07
6.56982e-07
6.26314e-07
2.18926e-06
6.12493e-07
6.03901e-07
5.92831e-07
5.12031e-07
5.11667e-07
4.9467e-07
4.97016e-07
4.96269e-07
5.33079e-07
4.94191e-07
4.97855e-07
4.86862e-07
4.90626e-07
4.94649e-07
4.94954e-07
4.91922e-07
4.89615e-07
4.96354e-07
4.95189e-07
4.82188e-07
1.10854e-06
5.3299e-07
5.44763e-07
5.36655e-07
5.15417e-07
5.01772e-07
5.53774e-07
5.53774e-07
5.53774e-07
5.53774e-07
5.53774e-07
5.53774e-07
5.50785e-07
5.50785e-07
7.45291e-07
7.11668e-07
4.9897e-07

NodalForce_(N) 3 343 double
3.8384e-06 4.80873e-07 -2.32044e-07
3.33026e-05 4.30683e-06 -2.17546e-06
0.000755979 0.000833779 0.000750542
4.30645e-05 4.97594e-06 -3.86776e-06
6.50151e-05 1.55253e-05 -5.86243e-06
6.16653e-05 1.14536e-05 -4.00876e-06
8.54876e-05 3.26571e-05 -8.04184e-06
5.21975e-05 1.6762e-05 -5.34752e-06
6.31349e-05 1.86616e-05 -4.35604e-06
3.17799e-05 6.40421e-06 -2.28158e-06
2.12349e-05 5.21103e-06 -4.30336e-07
8.80355e-05 2.16792e-05 -3.46549e-06
3.71811e-05 9.31345e-06 -7.16864e-07
4.52776e-05 2.28644e-06 -2.86542e-06
1.87065e-05 3.39439e-06 -5.55209e-07
5.29377e-05 1.74831e-05 -2.74028e-06
4.12954e-05 1.33203e-05 -2.63228e-06
3.31727e-05 2.46063e-06 -2.87703e-06
-0.00230184 0.00142713 -0.000222845
1.59055e-05 9.70142e-07 -9.47393e-07
5.51704e-05 1.98171e-05 -6.91093e-06
0.000131998 4.8859e-05 -1.36601e-05
-0.00117482 -0.00294563 -0.00172643
2.55306e-05 8.11125e-06 -3.32561e-06
8.02889e-05 2.35738e-05 -1.10183e-05
3.54505e-05 8.17918e-06 -4.68574e-06
9.07104e-06 7.50116e-07 -7.72211e-07
2.8647e-05 8.04824e-06 -3.5836e-06
7.0754e-06 1.62866e-06 -6.16565e-07
2.3143e-05 2.90966e-06 -6.23698e-07
2.95595e-05 6.92281e-06 -3.19071e-06
0.000100863 5.08063e-05 -5.21917e-06
0.000109385 3.81436e-05 -6.28082e-06
5.91013e-05 2.70086e-05 -4.66974e-06
2.45221e-05 2.16078e-05 -2.29685e-06
6.35199e-05 3.36235e-05 -3.76811e-06
1.5656e-05 1.69596e-05 -8.43184e-07
7.38427e-05 5.3476e-05 -9.98366e-06
3.06594e-05 3.46541e-06 -1.92176e-06
4.68741e-05 6.04153e-06 -2.0136e-06
4.80508e-05 9.55829e-06 -3.47544e-06
5.07234e-05 1.21245e-05 -1.36404e-06
3.32889e-05 9.49775e-07 -2.37379e-07
5.18087e-06 1.36417e-06 2.31788e-07
2.77804e-05 6.58738e-06 2.51951e-07
0.00150175 0.00150306 -0.000613638
1.32258e-05 1.075e-06 -3.96227e-07
-0.000434784 0.00195443 0.000160055
3.44617e-05 1.00889e-06 -1.42674e-06
6.40945e-06 1.01886e-07 -2.29899e-07
1.75985e-05 6.39678e-06 -7.59488e-07
4.50271e-05 1.07781e-05 -1.87267e-06
2.4673e-05 1.36906e-06 2.29043e-07
1.5986e-05 8.73171e-07 -2.75395e-07
1.42458e-05 5.0016e-07 -4.75113e-07
4.59549e-05 2.34445e-05 -3.15241e-06
0.00107405 0.00103855 0.00109078
5.07576e-06 8.7245e-07 -3.08606e-07
-0.000497981 0.000218512 -0.000823203
1.80207e-05 1.09471e-05 -1.40917e-06
1.20965e-05 8.70692e-07 -5.57236e-07
5.13789e-05 2.47672e-05 -6.41627e-06
0.000178601 7.57515e-05 -2.67284e-05
7.66559e-05 3.29762e-05 -9.34138e-06
4.88341e-05 1.00529e-05 -4.74291e-06
6.27168e-06 4.78296e-07 2.55411e-07
1.49208e-05 2.68732e-06 -7.36421e-07
5.55078e-05 1.22695e-05 -2.45869e-06
2.63195e-05 1.82334e-05 -2.77828e-06
5.97567e-05 2.42364e-05 -6.81995e-06
7.95294e-06 1.88249e-06 -1.01004e-06
9.78352e-06 1.49916e-06 -3.20625e-07
1.6052e-05 3.32327e-06 -1.42425e-06
3.33344e-05 4.64994e-06 -1.41954e-06
2.40413e-05 3.32416e-06 -2.14707e-06
0.00192391 0.00125778 0.000639544
3.43501e-05 7.71787e-06 -3.49275e-06
3.97656e-06 3.96989e-07 -2.6582e-07
2.01861e-05 6.88762e-06 -5.79827e-07
1.46144e-05 8.70333e-06 -3.99224e-07
1.22451e-05 4.62836e-06 -4.50823e-08
1.44241e-05 3.28491e-06 -2.25104e-07
3.0057e-05 2.29219e-05 -2.30439e-06
1.6538e-05 2.38498e-06 -5.8512e-07
-0.0001259 -0.00164788 0.00075925
3.01041e-06 3.28193e-07 -1.21577e-07
9.66727e-05 -0.00103194 0.000726691
-0.00111836 -0.000504031 3.99399e-05
-0.000634752 0.000771855 -0.000293593
7.95538e-06 1.72187e-06 -9.03902e-07
7.32397e-06 -7.99723e-08 -2.69466e-07
2.96989e-05 6.21759e-06 -1.19143e-06
3.09906e-05 1.53962e-06 -6.63186e-07
2.50803e-05 7.65457e-06 -8.66905e-07
0.000185843 6.7244e-05 -8.76028e-06
4.17229e-05 1.50274e-05 -5.21151e-06
6.81933e-05 2.12281e-05 -8.20906e-06
2.52829e-05 1.30097e-05 -3.54625e-06
-0.000113855 0.000365478 9.31473e-05
3.79198e-05 1.62324e-05 -6.38295e-07
3.80861e-05 1.40251e-05 -5.63228e-06
5.40525e-05 1.90488e-05 -7.87097e-06
2.4608e-06 8.12187e-07 9.57606e-08
2.19489e-05 2.14352e-05 -6.61075e-07
5.56991e-06 1.35276e-06 -5.88199e-07
4.2294e-05 1.43302e-05 -5.92089e-06
3.76773e-05 2.0012e-05 -2.31374e-06
6.33017e-05 2.50281e-05 -5.13269e-06
7.78377e-05 2.28516e-05 -5.1306e-06
3.87183e-06 5.5327e-08 -1.50425e-07
1.72579e-05 1.13337e-05 -3.13259e-06
3.61453e-05 1.5555e-05 -3.34858e-06
3.96542e-05 1.54625e-05 -5.55926e-06
-0.00139604 -0.000500963 -0.00148918
2.94336e-05 1.47992e-05 -4.2974e-06
1.74333e-05 6.83752e-07 -1.19719e-06
1.23211e-05 1.10053e-05 -1.69e-06
5.80227e-05 3.00285e-05 -5.88184e-06
1.04755e-05 1.10763e-05 -1.17683e-06
2.93872e-05 9.98368e-06 -1.46161e-06
6.22003e-05 2.91412e-05 -5.94321e-06
6.47603e-05 2.54019e-05 -5.86918e-06
1.01518e-05 9.11882e-07 -5.82826e-07
0.000514874 0.000517496 0.000324405
4.01527e-06 3.5578e-07 -1.5958e-07
1.57504e-05 9.67643e-06 -1.37254e-06
1.29473e-05 9.33822e-06 -2.21731e-06
-0.000550294 -0.000884408 -0.000677976
2.38887e-06 -2.55392e-08 -7.49785e-08
2.58541e-05 8.41921e-06 -3.70539e-07
7.5091e-06 6.95936e-06 -3.62313e-07
1.68926e-05 1.23831e-05 -1.14587e-06
2.79979e-05 8.02107e-06 -7.09595e-07
2.72728e-05 8.02298e-06 -1.04267e-06
0.000588474 -0.00180086 -6.26919e-05
2.27623e-06 1.78619e-07 -2.51235e-08
-0.000385752 0.000377286 -0.000396384
2.74048e-05 1.16842e-05 -3.73771e-06
1.53222e-05 1.09792e-05 -2.129e-06
4.70906e-05 2.8157e-05 -6.63441e-06
4.0411e-05 1.61458e-05 -2.10443e-06
2.40547e-05 8.71151e-06 -5.83795e-07
2.38167e-05 9.53696e-06 -1.02636e-06
3.54303e-05 1.63356e-05 -2.31767e-06
-0.00174341 0.000691404 6.79746e-05
4.83869e-05 1.46005e-05 -1.00167e-06
1.77053e-05 4.67478e-06 -1.84971e-06
0.000100331 4.87798e-05 -1.45222e-05
3.40825e-05 1.9575e-05 -5.00245e-06
3.36095e-06 1.58863e-06 1.45465e-07
5.44326e-06 2.21181e-06 3.26463e-07
3.73805e-06 3.52693e-07 -3.01551e-07
-0.000848665 -0.000887803 -0.000134215
1.36621e-05 7.30668e-06 -1.11875e-06
7.61367e-06 7.82936e-06 -4.63627e-07
1.13712e-05 5.96781e-06 -6.54326e-07
0.000695336 -0.00132186 0.000423818
-0.00289225 0.000647339 0.00126396
1.29958e-05 3.61704e-06 -6.14435e-07
4.11819e-05 1.92197e-05 -3.34524e-06
1.07257e-05 2.72081e-06 -5.27215e-07
4.19807e-06 1.01189e-06 2.06632e-08
2.25162e-05 9.73247e-06 -3.54693e-06
7.63067e-06 1.76274e-06 -2.74219e-07
1.8027e-05 1.09098e-05 -1.18407e-06
1.36726e-05 6.83197e-06 -8.3139e-07
2.77339e-05 1.18392e-05 -4.57353e-06
8.0486e-06 1.85164e-06 -1.02656e-06
9.87983e-06 8.98146e-06 -1.94352e-06
5.08196e-06 6.32553e-06 -7.77094e-07
8.42462e-06 4.25653e-06 -1.39469e-06
3.38334e-05 1.52201e-05 -3.81282e-06
2.33958e-05 9.44895e-06 -3.39687e-06
1.02455e-05 3.18303e-07 -3.71231e-07
1.44334e-05 1.24798e-06 -4.37769e-07
6.48396e-06 6.97248e-07 -2.32323e-07
7.73016e-06 6.20067e-06 -4.42086e-07
9.17398e-06 1.66479e-06 -2.68233e-07
2.61701e-05 1.61102e-05 -3.36538e-06
0.00039883 -0.00110565 -0.000958184
3.86953e-05 1.78866e-05 -2.27572e-06
3.01241e-05 1.65224e-05 -5.39e-06
3.99248e-05 2.17415e-05 -6.46782e-06
0.000354297 -0.00116878 0.000913577
3.51251e-06 4.2298e-07 -4.82337e-08
2.48034e-05 9.11615e-06 -4.85659e-07
3.87615e-05 1.45104e-05 -1.2866e-06
2.28696e-05 9.04468e-06 -9.79747e-07
9.35663e-06 5.99866e-06 3.58505e-07
2.65671e-05 8.16052e-06 -7.72705e-07
6.75193e-06 4.98942e-06 3.74332e-08
8.80013e-06 6.89984e-06 7.11112e-08
7.38273e-06 1.19538e-07 -1.66505e-07
1.15511e-05 3.24061e-06 -1.81518e-06
8.60649e-06 1.77949e-06 -7.29323e-07
1.07118e-05 2.20298e-06 -7.77266e-07
2.23163e-05 1.35343e-05 -3.83582e-06
1.50131e-05 5.55754e-06 -1.15723e-06
2.32071e-05 1.2426e-05 -2.91915e-06
1.31837e-05 6.62523e-06 -2.33951e-06
9.39832e-06 1.14908e-05 -1.06844e-06
0.000168851 -0.000627605 0.00033638
3.6113e-06 3.78148e-07 1.84974e-07
-0.000414259 0.000989378 0.000247966
4.73823e-06 2.85803e-06 -6.50639e-07
5.85434e-06 4.574e-06 -2.97239e-07
3.56316e-05 9.17402e-06 -4.17011e-06
1.60887e-05 7.84781e-06 -2.80848e-06
2.7276e-05 8.49501e-06 -2.74426e-06
2.19756e-05 6.63853e-06 -1.42705e-06
1.88106e-06 2.45528e-07 6.41101e-08
2.2185e-05 1.09428e-05 -3.74581e-06
2.38762e-05 1.15537e-05 -1.91483e-06
9.99807e-06 9.10222e-06 -1.97882e-08
1.82697e-05 3.98337e-06 -6.10122e-07
1.03628e-05 2.1148e-06 -9.56185e-07
2.70245e-05 1.23762e-05 -1.48011e-06
1.76217e-05 1.37343e-06 -1.08087e-06
1.38995e-05 5.41579e-06 -2.33667e-06
2.43837e-05 1.55e-05 -4.59051e-06
6.543e-06 3.7333e-06 2.51851e-08
3.02985e-05 1.51747e-05 -3.0714e-06
4.95579e-06 4.13322e-06 -7.29221e-08
3.6106e-05 1.262e-05 -3.26667e-06
4.4735e-06 1.45849e-06 3.29946e-07
-0.00139519 -8.85231e-05 0.000525068
8.88407e-06 1.36634e-06 -2.40703e-07
1.90563e-05 5.52118e-06 -7.27205e-07
2.86149e-05 4.29456e-06 -1.99658e-06
5.24964e-06 2.85605e-06 2.69321e-07
1.62999e-05 4.20424e-06 -1.3237e-06
2.65559e-05 2.5586e-06 -1.37779e-06
0.00082291 -0.00155752 0.000124905
-0.000723088 0.000191507 0.000110352
9.66682e-06 3.36656e-06 -1.60103e-06
3.05759e-05 7.8389e-06 -2.38219e-06
1.34383e-05 4.19553e-06 -1.65645e-06
2.02409e-05 1.15375e-05 -2.13752e-06
2.499e-05 3.15105e-06 -9.74827e-07
1.69132e-05 3.0376e-06 -6.6507e-07
2.21588e-05 1.48762e-05 -3.66677e-06
0.000826211 8.19017e-05 0.000711096
1.31745e-05 1.06472e-05 -2.57131e-06
3.88109e-06 1.22565e-06 -5.6489e-07
0.00114355 -0.00110347 -2.02296e-05
2.80011e-06 1.43098e-06 -2.09637e-07
0.00156743 -0.00027217 -0.000364031
1.67557e-05 1.36246e-05 -2.89522e-06
1.07137e-05 8.46721e-06 -2.13578e-06
0.000177614 -0.000567788 -2.87473e-06
1.4834e-05 4.86397e-06 -2.19622e-06
-0.000315305 -0.000252657 -0.000254697
1.05062e-05 5.04563e-06 -1.36928e-06
3.75064e-06 3.92411e-06 -2.17483e-07
7.98339e-06 3.03201e-06 -1.14078e-06
2.97008e-05 1.44152e-05 -3.425e-06
6.51055e-06 2.3382e-06 -9.99785e-07
-0.00131966 -0.00140513 -0.000124051
3.08477e-05 3.9188e-06 -2.35947e-06
6.12274e-06 1.88481e-06 2.75163e-08
1.07462e-05 4.95519e-06 -7.44371e-07
-0.00113814 -0.00102891 1.62565e-05
6.85033e-06 9.2736e-06 -1.26605e-06
1.14508e-05 1.16469e-05 -2.09728e-06
1.09682e-05 5.11562e-06 -1.12019e-06
6.87725e-06 4.65004e-06 -1.32288e-06
2.82466e-06 4.24975e-07 -1.69217e-07
6.50069e-05 0.00141478 -0.000798719
-0.000208778 0.00020328 0.000111273
0.00013499 -0.000257742 -1.52929e-05
8.7519e-06 9.15085e-06 -1.78911e-06
3.01734e-06 3.67217e-06 -3.24846e-07
4.31555e-06 2.78697e-06 1.90183e-07
6.9718e-06 3.70224e-06 -5.00169e-07
0.000171172 -0.000390764 0.00034932
0.000149603 0.00115367 0.000258028
2.77072e-06 3.49912e-07 6.46263e-09
3.78252e-06 2.39838e-07 -1.56834e-07
8.71819e-06 7.94173e-06 -7.31141e-07
2.64119e-06 1.06273e-07 -5.81917e-08
-0.000636248 0.00107346 -0.000311928
1.25589e-05 9.32893e-06 -9.8849e-07
1.75854e-06 2.33185e-06 -3.02648e-07
3.14814e-05 1.62992e-05 -5.00141e-06
1.56672e-06 1.86424e-07 -8.33266e-08
1.09701e-05 7.22739e-06 -8.51379e-07
7.75842e-06 3.6974e-06 -4.70096e-07