# vtk DataFile Version 4.2
vtk output
ASCII
DATASET UNSTRUCTURED_GRID

POINTS 343 double
0.00116019 0.00419565 -1.10497e-06
0.00224489 0.00498333 0.00217317
0 0.00419538 0.00112517
0.0019908 0.001955 0.00194034
0.00533396 0.00239764 0.00502758
0.00534445 0.0038227 0.00639082
0.00789658 0.00475325 0.00499239
0.00644531 0.00483732 0.00368833
0.00706742 0.00327097 0.00690454
0.005164 0.00498628 0.00499509
0.00430876 0.00111064 0.00999178
0.00544741 0.00206974 0.00789567
0.00431236 -1.53746e-05 0.00831024
0.00207482 0.00200348 0.00803132
0.00442431 0.0025275 0.0099918
0.00721594 0.0064295 0.00693666
0.00665009 0.00616838 0.00517671
0.00233146 0.0021852 0.00514358
0 0.00143586 0.00417514
0.00164623 0.00346738 0.00403502
0.00707072 0.00317581 0.00315914
0.00800468 0.00218822 0.0050575
0 0.00270918 0.00154168
0.00429189 0.00142062 -5.74137e-07
0.00516908 0.00217788 0.00219737
0.00409648 0.00352335 0.0016021
0.00138449 2.3307e-07 0.00405857
0.00430818 -1.59697e-05 0.00168763
0.00272361 0.00695191 -1.17544e-06
0.00200851 0.00805393 0.00194309
0.00423672 0.00624587 0.00164391
0.00831807 0.00795924 0.0079835
0.00825176 0.00479109 0.00800872
0.00870508 0.0060511 0.00593855
0.0104132 0.0087805 0.00418501
0.00787322 0.00761208 0.00495679
0.00892732 0.00994344 0.00416013
0.00829643 0.00794348 0.00201499
0.00364962 0.00303455 0.00695517
0.00458422 0.00365779 0.00831718
0.00401011 0.00159545 0.00596478
0.00519417 0.00766072 0.00766898
0.00205994 0.00800903 0.00798703
0.0029386 0.00999526 0.00712319
0.0040648 0.00839538 0.00595302
0 0.00695361 0.00262895
0.00170317 0.00624009 0.00408615
0 0.0040177 0.00850214
0.00239314 0.00498656 0.00765871
0.00148084 0.00417528 0.0099981
0.00744992 0.00709819 0.00998284
0.0063411 0.00595875 0.00840662
0.00212472 0.00794281 0.00473949
0.00315132 0.00694336 0.00646414
0.00164107 0.00607937 0.00592417
0.0103729 0.00574289 0.00829783
0 0.00718191 0.00711644
0.00164026 0.0057742 -1.50252e-06
0 0.00577432 0.00158701
0.0103905 0.00711491 0.00709981
0.00296257 0.00334878 0.00999522
0.0103197 0.00136754 0.00416827
0.00830841 0.00191551 0.00197917
0.00868636 0.00347343 0.00399363
0.00383882 0.00164329 0.00412506
0.00156565 0.010001 0.00581307
0.00288811 -6.19906e-06 0.00712467
0.00631985 0.00415938 0.00836536
0.0103923 0.00720577 0.00418748
0.0088037 -5.30948e-05 0.00416277
0.00345474 0.00286761 -1.07633e-06
0.00278407 0.00153733 0.00999549
0.00289824 -6.99555e-06 0.00282943
0.00496416 0.00518914 0.00754693
0.00326061 0.00314554 0.00316431
0 0.00849157 0.00581511
0.00502705 0.00366301 0.00378293
0.00158738 0.00270985 -1.56314e-06
0.00602657 0.0083031 0.00998597
0.00623048 0.00997298 0.00849404
0.00438231 0.00998693 0.00831042
0.00417202 0.0084931 0.00999084
0.0104076 0.00842277 0.00580183
0.00325961 0.00683354 0.00314796
0 0.00748929 0.00137438
0.0014232 0.0074905 -1.52921e-06
0 0.00287343 0.00335182
0 0.00580816 0.00831736
0 0.00429792 0.00253898
0.00262241 0.00429593 -1.17867e-06
0.00148275 0.00582033 0.00999809
0.00536369 0.00646141 0.00639326
0.00373136 0.00650901 0.00822805
0.00716416 0.00259424 0.00998479
0.00826547 0.00191342 0.00802052
0.00715793 -3.8254e-05 0.00308033
0.00619229 0.00163748 0.00361021
0.0103377 0.00280667 0.00334735
0 0.00140616 0.00256446
0.0066216 0.00820075 0.00641133
0.00598514 0.00140809 1.25518e-06
0.00622905 0.00352758 0.00160321
0.00328118 0.00999317 0.00582144
0.00892068 0.00994399 0.00582158
0.00263528 0.00140083 -1.04198e-06
0.00613288 -2.92298e-05 0.00149522
0.00652784 0.00826081 0.00361311
0.00879766 -5.26043e-05 0.00582313
0.00638294 0.00164504 0.00635666
0.00144679 0.00256531 0.00999825
0.00739186 0.00714702 1.00353e-06
0.00536444 0.00767319 0.0021671
0.00615774 0.00607257 0.00160136
0 0.00686719 0.00578184
0.0103206 0.00133737 0.00256207
0.00182971 0.00361091 0.00640595
0.01041 0.008417 0.00261958
0.00872282 0.00614168 0.00412651
0.00623397 0.00997076 0.00149253
0.00715512 -3.74193e-05 0.00691539
0.0103191 0.00136753 0.00580732
0.0086748 0.00352591 0.00604997
0.00154617 -9.17045e-08 0.00581348
0 0.0013659 0.00748679
0.001404 4.72761e-09 0.00752739
0.0103863 0.00679998 0.0057691
0.00605107 0.00846705 5.87423e-07
0 0.0075208 0.00859127
0.00141281 0.00748782 0.00999797
0.00439203 0.00819494 0.00362449
0.00895498 0.00994364 0.00749623
0.0104097 0.00856161 0.00750811
0.00593726 0.00156177 0.00998746
0.00750021 0.00415445 0.0099837
0 0.0057735 0.00666667
0.00142103 0.0100006 0.00752747
0 0.00863025 0.00752641
0.00883267 -5.44607e-05 0.00250666
0.0103895 0.00688508 0.00262503
0.00877564 0.00629289 0.00216125
0.00881826 0.00577637 0.00998002
0.00770923 0.00133274 0.00998305
0.00883175 -5.34853e-05 0.00749672
0.0103182 0.00129819 0.00746972
0 0.00143551 0.00581971
0.00613055 -2.81898e-05 0.00849407
0.00431457 -1.6135e-05 0.00339764
0.0082092 0.00466481 0.00203362
0.0103559 0.0042318 0.0025363
0.00440158 0.0099859 0.00665993
0.00294975 0.00999526 0.00282897
0.00134549 5.467e-08 0.00241707
0 0.00727418 0.00419576
0.0103722 0.00570826 0.00665124
0.00726961 0.00996085 0.00307769
0.00780879 0.00859706 0.00998201
0 0.00574334 0.00336387
0 0.0043297 0.00416652
0.00711414 0.00575523 0.00998434
0.010338 0.00295664 0.00689938
0.00432679 -1.57339e-05 0.00666086
0.00257778 0.00999593 0.00860757
0.00770943 0.00132285 2.22045e-06
0.00598495 0.00664724 0.00998651
0.0103952 0.00745405 0.00857052
0.00894314 0.00750372 0.00997933
0.00713421 0.00298826 1.95985e-06
0.00348146 0.00574011 -6.75535e-07
0.0078353 0.00858835 8.92859e-07
0.0078373 0.00995384 0.00138605
0.00599999 0.00684603 6.08497e-07
0.00723129 0.00633912 0.00303042
0.00772094 -4.46335e-05 0.00138913
0.00298002 0.00499767 0.00999486
0.00447865 0.00582613 0.00999069
0.00446777 0.00415841 0.00999118
0.00783345 0.009956 0.00860008
0.00253478 -5.14916e-06 0.00860824
0.0103729 0.00567747 0.00335865
0 0.00302218 0.00691532
0.0103501 0.00395334 0.00848252
0.00879386 0.00396755 2.82975e-06
0.0103375 0.00264142 0.0015418
0 0.00244495 0.00857025
0.00253765 0.00856742 0.00999498
0.00771867 -4.34798e-05 0.00859998
0.00875676 0.0025751 0.00998033
0.00915446 0.00414253 0.00997933
0.00590598 0.00997457 0.00582493
0.00538034 0.00756729 0.00502645
0.00587813 0.0099743 0.00420983
0.00726577 0.00996205 0.00691416
0.00312959 0.00691431 0.00999381
0.00430408 0.00432125 2.15747e-07
0.00290135 -7.61589e-06 0.00440231
0.00322579 -8.51226e-06 0.00582253
0.0103564 0.00412849 0.00112596
0.00377824 0.00832939 0.00158676
0.0103549 0.00426386 0.00415891
0.0069072 0.00574439 1.58531e-06
0.00895698 0.00994226 0.00250321
0 0.00848692 0.00262374
0.0014021 0.0100008 0.0040581
0 0.00885053 0.00419359
0.00436394 0.00883732 -2.86461e-07
0.00438162 0.00998525 0.0016857
0.00516455 0.00477838 0.00237721
0.00746675 0.00448595 2.03755e-06
0.00578442 -2.68016e-05 0.00421245
0.00581235 -2.6627e-05 0.00582636
0.00136278 0.0100007 0.00241634
0.00884557 0.00239267 3.12066e-06
0.0103565 0.00445682 0.00720261
0.00741661 0.00995987 0.00499194
0.00592217 0.00334356 0.00998775
0.00251593 -5.20842e-06 0.00135535
0.010331 0.00237862 0.00855085
0.00247219 0.00479032 0.00499747
0.00602733 0.00430832 1.54653e-06
0.00862384 0.00575997 1.98552e-06
0.00570745 0.00997694 0.00721141
0.0103542 0.00426476 0.00582079
0.0056301 0.00997609 0.00277198
0.00730375 -3.88128e-05 0.00499427
0.00295121 0.00999541 0.00440118
0 0.00452174 0.00721958
0.00468828 0.00720994 0.00998978
0.00561568 -2.45878e-05 0.00721112
0.003721 0.0050692 0.00359324
0.00442775 0.00998548 0.00500312
0.00435092 -1.60663e-05 0.00500487
0.00379127 0.00521235 0.00617032
0 0.005744 0.00499998
0 0.00433013 0.00583333
0.00517747 0.00573121 8.83581e-07
0.0051617 0.00632626 0.00355051
0.00553844 -2.51244e-05 0.00277476
0.010372 0.00567891 0.00498955
0.00381793 0.00640331 0.00483997
0.0059384 0.00498238 0.00998738
0.0103753 0.00570755 0.00158658
0 0.00666667 0
0.00893119 0.00746875 1.4861e-06
0.00341632 -1.23767e-05 9.48898e-07
0 0.01 0.00666667
0.00520948 0.00997962 0.00998932
0 0.00288419 0.00499914
0.0103981 0.00742002 0.00137423
0.0103895 0.00659861 1.88686e-06
0 0.005 0.01
0.00515159 0.00286719 4.75767e-07
0 0.005 0
0.0103039 -6.85211e-05 0.00332941
0.0104289 0.00992536 0.00665016
0.00435421 0.00726494 -7.66806e-08
0.0103364 0.0028185 0.00498934
0.00512952 -2.35728e-05 1.73694e-06
0 0 0.00666667
0.00391395 0.00361064 0.00522231
0.005127 -2.25257e-05 0.00998857
0.0103025 -6.77869e-05 0.00665166
0 0 0.005
0.0091586 0.00993925 0.00121912
0.0104157 0.00870831 0.00121963
0.0103028 -6.79518e-05 0.00499047
0.0103685 0.00493257 2.71783e-06
0.0012538 0.00121938 -1.3749e-06
0 0.00122008 0.00122008
0 0.00333333 0.01
0 0.00666667 0.01
0.00914472 0.00872263 1.03858e-06
0.0104305 0.00992423 0.00332632
0.00439045 0.00998537 0.00339569
0.0103849 0.0066012 0.00997648
0 0.00333333 0
0 0.00122008 0.00877992
0.00125076 -6.98158e-07 0.00877777
0.00125378 0.00122014 0.00999871
0.00915419 0.00994124 0.0087612
0.00126349 0.00878024 0.00999809
0 0.00877992 0.00877992
0.010412 0.00871066 0.00875879
0.00695484 0.00996254 -7.10506e-07
0.0103195 0.00115058 0.00122139
0.0012664 0.00999989 0.00877897
0.00913898 0.00872492 0.00997903
0.0103635 0.00493525 0.00997673
0 0 0.00333333
0.00684646 -3.67641e-05 2.87594e-06
0.00903344 -5.72282e-05 0.00122258
0.00124174 -6.39736e-07 0.00121168
0 0.00877992 0.00122008
0.00126521 0.00878026 -1.11084e-06
0.00125843 0.0100001 0.00120978
0.0103162 0.00115205 0.00875946
0.00904478 0.00116492 0.00997938
0.00684374 -3.5661e-05 0.00998381
0.00904904 0.00116352 3.54557e-06
0.00903043 -5.59717e-05 0.00876071
0.0103478 0.00326577 3.24496e-06
0.0034709 0.00999016 0.00999427
0.00256068 0.00999645 0.0013543
0.00695022 0.00996468 0.00998532
0.0103427 0.00326898 0.00997695
0 0.01 0.005
0.00272623 0.00848393 -1.08267e-06
0.0104293 0.00992469 0.00498893
0 0.01 0.00333333
0 0.00166667 0
0.0103053 -6.95099e-05 0.00166745
0 0.00166667 0.01
0 0.00833333 0
0.0104119 0.00826207 1.66296e-06
0.0103025 -6.83864e-05 0.00831343
0.0104321 0.00992374 0.00166463
0.0104287 0.00992572 0.00831317
0.00173352 0.00999731 0.00999763
0 0.01 0.00833333
0.00869468 0.00994366 -1.29166e-08
0.00857185 -5.34405e-05 3.58847e-06
0.00856804 -5.24369e-05 0.00997991
0.00868865 0.00994577 0.00998067
0 0 0.00833333
0.0104068 0.00826515 0.00997623
0.00170622 -3.36676e-06 -7.56608e-07
0 0 0.00166667
0.00347623 0.00999095 -1.16282e-06
0.0103222 0.00159849 0.00997682
0.0103269 0.00159697 3.54723e-06
0.00170682 -2.58973e-06 0.00999784
0.00173527 0.00999849 -1.28351e-06
0 0.01 0.00166667
0.0104287 0.00992591 0.00997673
0 0 0.01
0.0104342 0.00992348 5.21559e-07
0.0103021 -6.89225e-05 0.009976
0 0.01 0.01
0.0103067 -7.01259e-05 4.09092e-06
0 0.01 0
0 0 0
0.00521508 0.009978 -7.67447e-07
0.00341496 -1.09618e-05 0.00999279
0 0.00833333 0.01

CELLS 343 686
1 0
1 1
1 2
1 3
1 4
1 5
1 6
1 7
1 8
1 9
1 10
1 11
1 12
1 13
1 14
1 15
1 16
1 17
1 18
1 19
1 20
1 21
1 22
1 23
1 24
1 25
1 26
1 27
1 28
1 29
1 30
1 31
1 32
1 33
1 34
1 35
1 36
1 37
1 38
1 39
1 40
1 41
1 42
1 43
1 44
1 45
1 46
1 47
1 48
1 49
1 50
1 51
1 52
1 53
1 54
1 55
1 56
1 57
1 58
1 59
1 60
1 61
1 62
1 63
1 64
1 65
1 66
1 67
1 68
1 69
1 70
1 71
1 72
1 73
1 74
1 75
1 76
1 77
1 78
1 79
1 80
1 81
1 82
1 83
1 84
1 85
1 86
1 87
1 88
1 89
1 90
1 91
1 92
1 93
1 94
1 95
1 96
1 97
1 98
1 99
1 100
1 101
1 102
1 103
1 104
1 105
1 106
1 107
1 108
1 109
1 110
1 111
1 112
1 113
1 114
1 115
1 116
1 117
1 118
1 119
1 120
1 121
1 122
1 123
1 124
1 125
1 126
1 127
1 128
1 129
1 130
1 131
1 132
1 133
1 134
1 135
1 136
1 137
1 138
1 139
1 140
1 141
1 142
1 143
1 144
1 145
1 146
1 147
1 148
1 149
1 150
1 151
1 152
1 153
1 154
1 155
1 156
1 157
1 158
1 159
1 160
1 161
1 162
1 163
1 164
1 165
1 166
1 167
1 168
1 169
1 170
1 171
1 172
1 173
1 174
1 175
1 176
1 177
1 178
1 179
1 180
1 181
1 182
1 183
1 184
1 185
1 186
1 187
1 188
1 189
1 190
1 191
1 192
1 193
1 194
1 195
1 196
1 197
1 198
1 199
1 200
1 201
1 202
1 203
1 204
1 205
1 206
1 207
1 208
1 209
1 210
1 211
1 212
1 213
1 214
1 215
1 216
1 217
1 218
1 219
1 220
1 221
1 222
1 223
1 224
1 225
1 226
1 227
1 228
1 229
1 230
1 231
1 232
1 233
1 234
1 235
1 236
1 237
1 238
1 239
1 240
1 241
1 242
1 243
1 244
1 245
1 246
1 247
1 248
1 249
1 250
1 251
1 252
1 253
1 254
1 255
1 256
1 257
1 258
1 259
1 260
1 261
1 262
1 263
1 264
1 265
1 266
1 267
1 268
1 269
1 270
1 271
1 272
1 273
1 274
1 275
1 276
1 277
1 278
1 279
1 280
1 281
1 282
1 283
1 284
1 285
1 286
1 287
1 288
1 289
1 290
1 291
1 292
1 293
1 294
1 295
1 296
1 297
1 298
1 299
1 300
1 301
1 302
1 303
1 304
1 305
1 306
1 307
1 308
1 309
1 310
1 311
1 312
1 313
1 314
1 315
1 316
1 317
1 318
1 319
1 320
1 321
1 322
1 323
1 324
1 325
1 326
1 327
1 328
1 329
1 330
1 331
1 332
1 333
1 334
1 335
1 336
1 337
1 338
1 339
1 340
1 341
1 342

CELL_TYPES 343
1
1
1
1
1
1
1
1
1
1
1
1
1
1
1
1
1
1
1
1
1
1
1
1
1
1
1
1
1
1
1
1
1
1
1
1
1
1
1
1
1
1
1
1
1
1
1
1
1
1
1
1
1
1
1
1
1
1
1
1
1
1
1
1
1
1
1
1
1
1
1
1
1
1
1
1
1
1
1
1
1
1
1
1
1
1
1
1
1
1
1
1
1
1
1
1
1
1
1
1
1
1
1
1
1
1
1
1
1
1
1
1
1
1
1
1
1
1
1
1
1
1
1
1
1
1
1
1
1
1
1
1
1
1
1
1
1
1
1
1
1
1
1
1
1
1
1
1
1
1
1
1
1
1
1
1
1
1
1
1
1
1
1
1
1
1
1
1
1
1
1
1
1
1
1
1
1
1
1
1
1
1
1
1
1
1
1
1
1
1
1
1
1
1
1
1
1
1
1
1
1
1
1
1
1
1
1
1
1
1
1
1
1
1
1
1
1
1
1
1
1
1
1
1
1
1
1
1
1
1
1
1
1
1
1
1
1
1
1
1
1
1
1
1
1
1
1
1
1
1
1
1
1
1
1
1
1
1
1
1
1
1
1
1
1
1
1
1
1
1
1
1
1
1
1
1
1
1
1
1
1
1
1
1
1
1
1
1
1
1
1
1
1
1
1
1
1
1
1
1
1
1
1
1
1
1
1
1
1
1
1
1
1
1
1
1
1
1
1
1
1
1
1
1
1
1
1
1
1
1
1
1
1
1
1
1
1
1
1
1
1
1
1

POINT_DATA 343
FIELD FieldData 8

NodeID_(#) 1 343 int
0
1
2
3
4
5
6
7
8
9
10
11
12
13
14
15
16
17
18
19
20
21
22
23
24
25
26
27
28
29
30
31
32
33
34
35
36
37
38
39
40
41
42
43
44
45
46
47
48
49
50
51
52
53
54
55
56
57
58
59
60
61
62
63
64
65
66
67
68
69
70
71
72
73
74
75
76
77
78
79
80
81
82
83
84
85
86
87
88
89
90
91
92
93
94
95
96
97
98
99
100
101
102
103
104
105
106
107
108
109
110
111
112
113
114
115
116
117
118
119
120
121
122
123
124
125
126
127
128
129
130
131
132
133
134
135
136
137
138
139
140
141
142
143
144
145
146
147
148
149
150
151
152
153
154
155
156
157
158
159
160
161
162
163
164
165
166
167
168
169
170
171
172
173
174
175
176
177
178
179
180
181
182
183
184
185
186
187
188
189
190
191
192
193
194
195
196
197
198
199
200
201
202
203
204
205
206
207
208
209
210
211
212
213
214
215
216
217
218
219
220
221
222
223
224
225
226
227
228
229
230
231
232
233
234
235
236
237
238
239
240
241
242
243
244
245
246
247
248
249
250
251
252
253
254
255
256
257
258
259
260
261
262
263
264
265
266
267
268
269
270
271
272
273
274
275
276
277
278
279
280
281
282
283
284
285
286
287
288
289
290
291
292
293
294
295
296
297
298
299
300
301
302
303
304
305
306
307
308
309
310
311
312
313
314
315
316
317
318
319
320
321
322
323
324
325
326
327
328
329
330
331
332
333
334
335
336
337
338
339
340
341
342

Component_(#) 1 343 int
0
0
0
0
0
0
0
0
0
0
0
0
0
0
0
0
0
0
0
0
0
0
0
0
0
0
0
0
0
0
0
0
0
0
0
0
0
0
0
0
0
0
0
0
0
0
0
0
0
0
0
0
0
0
0
0
0
0
0
0
0
0
0
0
0
0
0
0
0
0
0
0
0
0
0
0
0
0
0
0
0
0
0
0
0
0
0
0
0
0
0
0
0
0
0
0
0
0
0
0
0
0
0
0
0
0
0
0
0
0
0
0
0
0
0
0
0
0
0
0
0
0
0
0
0
0
0
0
0
0
0
0
0
0
0
0
0
0
0
0
0
0
0
0
0
0
0
0
0
0
0
0
0
0
0
0
0
0
0
0
0
0
0
0
0
0
0
0
0
0
0
0
0
0
0
0
0
0
0
0
0
0
0
0
0
0
0
0
0
0
0
0
0
0
0
0
0
0
0
0
0
0
0
0
0
0
0
0
0
0
0
0
0
0
0
0
0
0
0
0
0
0
0
0
0
0
0
0
0
0
0
0
0
0
0
0
0
0
0
0
0
0
0
0
0
0
0
0
0
0
0
0
0
0
0
0
0
0
0
0
0
0
0
0
0
0
0
0
0
0
0
0
0
0
0
0
0
0
0
0
0
0
0
0
0
0
0
0
0
0
0
0
0
0
0
0
0
0
0
0
0
0
0
0
0
0
0
0
0
0
0
0
0
0
0
0
0
0
0
0
0
0
0
0
0
0
0
0
0
0
0
0
0
0
0
0
0
0
0
0
0
0
0

NodalMass_(kg) 1 343 double
3.15563e-06
1.41304e-05
2.20912e-06
1.71484e-05
8.42e-06
9.09306e-06
9.93033e-06
7.52198e-06
6.81096e-06
5.58223e-06
3.10888e-06
1.07575e-05
4.87011e-06
1.64955e-05
3.0246e-06
8.05984e-06
6.703e-06
1.0877e-05
4.18978e-06
8.16106e-06
6.14143e-06
1.17902e-05
2.23114e-06
4.25176e-06
1.09915e-05
7.41467e-06
4.21871e-06
3.92484e-06
3.08766e-06
1.31268e-05
7.72627e-06
1.65404e-05
1.19037e-05
7.29666e-06
3.81683e-06
1.11001e-05
3.81317e-06
1.39137e-05
6.37414e-06
8.00975e-06
7.6712e-06
1.18847e-05
1.6399e-05
2.78633e-06
8.93599e-06
2.58087e-06
7.57362e-06
4.23241e-06
1.31286e-05
3.80168e-06
2.7746e-06
7.16776e-06
1.21307e-05
5.11765e-06
8.19728e-06
4.58094e-06
2.79503e-06
3.26126e-06
4.12443e-06
2.11915e-06
3.35177e-06
3.61669e-06
1.56838e-05
7.33679e-06
8.24695e-06
5.00369e-06
2.82625e-06
7.20276e-06
3.26815e-06
4.18751e-06
2.02785e-06
2.42152e-06
3.11835e-06
5.97459e-06
5.87101e-06
4.09374e-06
5.45463e-06
2.28825e-06
4.49759e-06
4.38192e-06
4.50892e-06
4.39234e-06
4.27273e-06
5.32031e-06
1.53201e-06
2.38869e-06
2.02885e-06
4.38798e-06
3.17972e-06
3.14298e-06
4.61567e-06
5.87645e-06
8.18088e-06
2.48341e-06
1.53815e-05
3.49683e-06
7.35227e-06
2.01314e-06
2.0408e-06
7.98183e-06
4.41293e-06
7.1389e-06
1.20123e-06
5.03343e-06
1.61257e-06
4.12601e-06
8.73748e-06
4.37849e-06
7.97173e-06
2.13557e-06
3.38137e-06
9.48623e-06
7.40262e-06
1.80226e-06
2.10222e-06
7.98889e-06
1.87983e-06
7.44814e-06
4.19782e-06
2.37156e-06
4.31705e-06
6.06441e-06
4.30905e-06
2.16843e-06
1.8986e-06
1.81294e-06
3.89762e-06
2.44299e-06
1.65628e-06
8.01374e-06
1.64513e-06
2.3931e-06
3.01363e-06
2.99431e-06
1.36541e-06
1.87293e-06
2.09622e-06
1.94762e-06
1.87618e-06
6.37913e-06
4.58628e-06
2.02767e-06
1.61999e-06
2.41284e-06
3.8865e-06
4.44973e-06
2.29839e-06
1.17349e-05
3.11811e-06
1.354e-06
3.45063e-06
1.81846e-06
2.9382e-06
1.37381e-06
2.41464e-06
2.10451e-06
2.63927e-06
2.14166e-06
1.7943e-06
3.19976e-06
1.36989e-06
2.43489e-06
2.08158e-06
1.3601e-06
2.17203e-06
1.89924e-06
3.16996e-06
2.6119e-06
2.37677e-06
1.60225e-06
1.90684e-06
5.49206e-06
1.87878e-06
3.14313e-06
2.97301e-06
1.18454e-06
1.89263e-06
2.04166e-06
2.73572e-06
2.42405e-06
3.23083e-06
3.19752e-06
3.2142e-06
1.94492e-06
1.61196e-06
1.86876e-06
3.22435e-06
2.1114e-06
2.96917e-06
6.15288e-06
2.3097e-06
2.39729e-06
2.38029e-06
2.64508e-06
1.66557e-06
1.82377e-06
2.06583e-06
5.73271e-06
2.08467e-06
2.18324e-06
2.43522e-06
3.1188e-06
3.17316e-06
2.05447e-06
1.9592e-06
3.05718e-06
6.44327e-06
2.08796e-06
2.72615e-06
2.15709e-06
1.86812e-06
2.0028e-06
2.10999e-06
2.88994e-06
2.3222e-06
2.3979e-06
1.97629e-06
6.4127e-06
2.16225e-06
3.29198e-06
2.10223e-06
2.66566e-06
1.94415e-06
2.91865e-06
2.58116e-06
2.11703e-06
2.09534e-06
1.91719e-06
7.06046e-06
2.25203e-06
2.06378e-06
6.28159e-06
2.12147e-06
2.90924e-06
2.12921e-06
6.4487e-06
1.41701e-06
2.0682e-06
6.58062e-06
2.52584e-06
2.39732e-06
7.42191e-07
2.22368e-06
7.06751e-07
7.00657e-07
8.93749e-07
2.53536e-06
2.26535e-06
1.33607e-06
7.84725e-07
2.32303e-06
6.06694e-07
6.68276e-07
6.84307e-07
2.51242e-06
2.31629e-06
7.8367e-07
6.80839e-07
6.22692e-06
6.7471e-07
6.65305e-07
7.01158e-07
1.8232e-06
1.90695e-06
6.86722e-07
7.04792e-07
1.86445e-06
2.28572e-06
6.8045e-07
7.16005e-07
1.82373e-06
6.01079e-07
2.02791e-06
7.4579e-07
5.74423e-07
1.80052e-06
1.454e-06
2.2702e-06
1.80636e-06
2.15356e-06
1.79089e-06
1.79456e-06
6.8231e-07
2.24737e-06
1.45239e-06
1.79556e-06
6.97875e-07
6.24265e-07
6.62717e-07
1.44627e-06
1.40138e-06
2.15258e-06
1.82851e-06
1.3994e-06
1.43932e-06
2.19226e-06
6.97732e-07
1.77726e-06
1.79162e-06
6.54258e-07
7.3397e-07
2.34895e-06
7.10392e-07
6.56982e-07
6.26314e-07
2.18926e-06
6.12493e-07
6.03901e-07
5.92831e-07
5.12031e-07
5.11667e-07
4.9467e-07
4.97016e-07
4.96269e-07
5.33079e-07
4.94191e-07
4.97855e-07
4.86862e-07
4.90626e-07
4.94649e-07
4.94954e-07
4.91922e-07
4.89615e-07
4.96354e-07
4.95189e-07
4.82188e-07
1.10854e-06
5.3299e-07
5.44763e-07
5.36655e-07
5.15417e-07
5.01772e-07
5.53774e-07
5.53774e-07
5.53774e-07
5.53774e-07
5.53774e-07
5.53774e-07
5.50785e-07
5.50785e-07
7.45291e-07
7.11668e-07
4.9897e-07

NodalForce_(N) 3 343 double
3.81481e-06 8.81398e-07 -2.80583e-07
3.0841e-05 9.57864e-06 -4.09337e-06
0.00123142 0.00125679 0.00106607
5.94359e-05 1.17784e-05 -6.10442e-06
9.58673e-05 4.46799e-05 -9.71798e-06
8.21751e-05 4.03243e-05 -8.83679e-06
9.55318e-05 9.91613e-05 -2.19919e-05
5.4414e-05 4.92974e-05 -1.27499e-05
8.81876e-05 5.7847e-05 -1.14091e-05
3.41357e-05 2.16054e-05 -5.66547e-06
3.69546e-05 1.18673e-05 -3.11267e-06
0.00013952 5.94071e-05 -1.27588e-05
6.55079e-05 2.11276e-05 -4.67235e-06
6.98063e-05 6.99768e-06 -6.10337e-06
3.00408e-05 9.7944e-06 -2.85558e-06
4.44332e-05 6.17501e-05 -1.17323e-05
3.35191e-05 4.42931e-05 -1.0136e-05
4.79146e-05 8.40345e-06 -3.32396e-06
-0.00346223 0.00207385 -0.000509102
1.98468e-05 2.34434e-06 -7.95806e-07
7.1662e-05 5.44923e-05 -1.36524e-05
0.000192059 0.000136628 -2.76028e-05
-0.00168784 -0.00424744 -0.00245638
3.72391e-05 2.12656e-05 -6.6054e-06
0.000114986 6.2532e-05 -2.09453e-05
4.14822e-05 2.10535e-05 -9.20299e-06
1.50981e-05 1.44365e-06 -1.07313e-06
4.745e-05 2.03542e-05 -7.26453e-06
2.52985e-06 3.59431e-06 -1.24299e-06
8.07573e-06 6.5395e-06 -2.34595e-06
1.81471e-05 1.83763e-05 -7.92078e-06
4.62118e-05 0.000168181 -2.50464e-05
0.000132848 0.000127008 -2.30634e-05
5.30816e-05 8.58081e-05 -1.73995e-05
1.59279e-06 6.42097e-05 -1.18568e-05
2.21838e-05 0.000106874 -2.21336e-05
-1.47339e-05 5.05717e-05 -7.7084e-06
3.30945e-07 0.000157554 -3.21617e-05
4.36618e-05 1.29628e-05 -3.40016e-06
6.63295e-05 2.39965e-05 -6.90111e-06
7.60507e-05 2.56255e-05 -5.75248e-06
2.63496e-05 4.50864e-05 -7.18984e-06
2.36059e-05 5.93295e-06 3.4812e-07
-2.26456e-06 3.76766e-06 5.02937e-07
5.14354e-06 2.28444e-05 -2.6793e-06
0.00237485 0.00232659 -0.000927807
1.12455e-05 3.06558e-06 -1.04274e-06
-0.000860318 0.00293186 5.38495e-05
3.75392e-05 7.51439e-06 -2.36534e-06
8.14947e-06 7.77896e-07 -2.72846e-07
1.38212e-05 2.15973e-05 -2.70231e-06
4.49817e-05 4.07975e-05 -7.59782e-06
1.4925e-05 4.90567e-06 -9.63368e-07
1.2421e-05 4.96781e-06 -1.08997e-06
1.36439e-05 2.44175e-06 -9.56292e-07
4.89638e-05 7.40291e-05 -1.24531e-05
0.00185378 0.00154669 0.0016638
3.43974e-06 1.69807e-06 -4.07295e-07
-0.00056907 0.000357513 -0.00112783
1.34785e-05 3.41271e-05 -6.07892e-06
1.81032e-05 3.75507e-06 -1.64074e-06
7.51159e-05 6.67592e-05 -1.39024e-05
0.00025146 0.00020439 -5.40088e-05
9.73065e-05 9.26883e-05 -2.09002e-05
7.60802e-05 2.70474e-05 -6.85711e-06
5.43709e-07 7.77176e-07 3.74129e-07
2.60672e-05 5.83758e-06 -1.70098e-06
7.39176e-05 4.39835e-05 -9.10408e-06
1.5467e-05 5.3908e-05 -1.11498e-05
9.61809e-05 6.30515e-05 -1.40627e-05
9.3316e-06 4.80022e-06 -1.91447e-06
1.71453e-05 3.29379e-06 -1.34587e-06
2.77771e-05 8.03011e-06 -2.12491e-06
3.84297e-05 1.97651e-05 -4.64828e-06
3.10826e-05 9.28368e-06 -3.35519e-06
0.00333089 0.00187495 0.000869016
4.33971e-05 2.23586e-05 -6.58661e-06
4.67922e-06 7.75898e-07 -3.37088e-07
8.3459e-06 2.28137e-05 -1.51692e-06
-8.13558e-06 2.64097e-05 -1.83578e-06
-3.55444e-06 1.39546e-05 -4.65653e-07
6.08596e-06 1.10958e-05 2.66343e-07
9.29575e-06 6.96393e-05 -1.25749e-05
1.09521e-05 6.87779e-06 -2.39969e-06
-1.88301e-05 -0.00246917 0.00117578
1.11992e-06 4.62598e-07 -1.30223e-07
0.000156419 -0.00155886 0.00110814
-0.00212328 -0.000716661 5.9643e-05
-0.000951131 0.00115386 -0.000411816
6.71709e-06 3.77624e-06 -1.57481e-06
7.72336e-06 4.00054e-07 -1.79329e-07
2.37675e-05 2.34745e-05 -4.97917e-06
2.86335e-05 1.07582e-05 -2.3276e-06
3.90586e-05 2.14249e-05 -4.59889e-06
0.000288009 0.000183019 -3.64542e-05
6.80167e-05 3.88347e-05 -1.00707e-05
0.000102945 5.76044e-05 -1.44416e-05
3.3159e-05 3.54457e-05 -7.90995e-06
-0.000208407 0.000558832 0.000145453
9.75176e-06 5.39364e-05 -8.32811e-06
5.59423e-05 3.72627e-05 -1.15178e-05
6.58699e-05 5.01349e-05 -1.60565e-05
-1.23023e-06 2.41094e-06 -1.47436e-07
-1.4999e-05 6.4504e-05 -9.35781e-06
8.01404e-06 3.47859e-06 -1.12128e-06
6.92418e-05 3.71272e-05 -1.23705e-05
-1.92658e-06 6.18769e-05 -1.2871e-05
0.00010354 6.41298e-05 -1.31811e-05
0.000121954 6.19644e-05 -1.17708e-05
5.98889e-06 1.14846e-07 -2.13977e-07
2.72864e-06 3.13672e-05 -7.23458e-06
1.79163e-06 4.61394e-05 -1.12443e-05
2.48424e-05 4.29568e-05 -1.33959e-05
-0.00221793 -0.000702205 -0.00230746
4.23291e-05 3.9597e-05 -9.09013e-06
2.24977e-05 2.95641e-06 -1.64448e-06
1.18507e-06 3.21593e-05 -6.12982e-06
4.63497e-05 8.89222e-05 -2.0114e-05
-2.03521e-05 3.22478e-05 -4.16338e-06
4.97929e-05 2.47009e-05 -4.88117e-06
9.31136e-05 7.80483e-05 -1.52544e-05
8.58224e-05 7.58677e-05 -1.49979e-05
1.65748e-05 1.777e-06 -9.24772e-07
0.000570347 0.000590835 0.000555885
6.56384e-06 7.05705e-07 -2.72611e-07
1.19362e-05 2.95392e-05 -5.70282e-06
-8.67954e-06 2.72388e-05 -5.20224e-06
-0.000627499 -0.00139674 -0.0011943
1.97598e-06 8.67389e-08 -6.58032e-09
1.03286e-06 2.59727e-05 -4.3842e-06
-3.54885e-06 2.06021e-05 -2.33667e-06
6.12317e-06 3.7989e-05 -5.80602e-06
4.72037e-05 1.961e-05 -4.63684e-06
3.75602e-05 2.56489e-05 -5.10085e-06
0.0013622 -0.00261924 -0.000111563
6.48692e-07 3.03276e-07 -1.64015e-08
-0.000364051 0.000590055 -0.00049996
4.34985e-05 3.06134e-05 -7.93105e-06
9.15317e-06 3.13245e-05 -6.59834e-06
3.10889e-05 7.90047e-05 -1.79011e-05
4.48749e-05 5.29069e-05 -8.31468e-06
3.99023e-05 2.13985e-05 -4.65379e-06
3.96587e-05 2.35945e-05 -4.66175e-06
5.4487e-05 4.30308e-05 -8.52889e-06
-0.00264012 0.0010432 6.06239e-05
8.45978e-05 3.44349e-05 -7.80597e-06
3.01715e-05 1.16351e-05 -3.11861e-06
0.000102136 0.000131018 -3.32289e-05
3.80464e-05 5.29808e-05 -1.20395e-05
-2.31155e-06 4.70861e-06 -9.71966e-08
-6.55276e-06 5.89293e-06 -2.53969e-07
6.09194e-06 7.04184e-07 -4.86444e-07
-0.00123762 -0.00143014 -0.000110858
1.3867e-05 2.24863e-05 -4.18939e-06
-1.06821e-05 2.32573e-05 -3.32422e-06
3.74024e-06 1.85453e-05 -1.7067e-06
0.00105875 -0.00203376 0.000635759
-0.00402782 0.000944493 0.001747
1.44204e-05 1.2918e-05 -2.27519e-06
5.68418e-05 5.48767e-05 -1.03246e-05
1.86495e-05 6.3491e-06 -1.34594e-06
-9.81744e-07 2.7312e-06 2.19246e-07
3.24151e-05 2.62933e-05 -7.59313e-06
6.97393e-06 6.49352e-06 -8.62857e-07
1.31858e-05 3.42494e-05 -4.94107e-06
9.84174e-06 2.16411e-05 -2.71734e-06
3.46341e-05 3.11195e-05 -9.43941e-06
4.7696e-06 4.33829e-06 -2.11142e-06
-5.76226e-06 2.63035e-05 -4.70209e-06
-8.29112e-06 1.84496e-05 -2.48337e-06
2.03066e-06 1.15343e-05 -3.09066e-06
2.15404e-05 4.49513e-05 -1.13615e-05
3.72894e-05 2.47632e-05 -7.33204e-06
1.25547e-05 2.49739e-06 -9.82347e-07
1.64194e-05 6.43489e-06 -1.37892e-06
9.10057e-06 2.93969e-06 -8.59836e-07
-3.48864e-06 1.82431e-05 -1.49626e-06
1.62323e-05 3.60373e-06 -1.0064e-06
2.36263e-05 4.54459e-05 -1.00244e-05
0.000656857 -0.00145093 -0.00133397
5.1006e-05 5.33855e-05 -9.99184e-06
3.27009e-05 4.33147e-05 -1.14614e-05
5.16094e-05 5.80852e-05 -1.39746e-05
0.000559871 -0.00169816 0.00133959
1.65108e-06 1.45854e-06 9.94599e-08
4.23899e-05 2.17813e-05 -4.53234e-06
5.97082e-05 4.01711e-05 -7.93464e-06
3.10848e-05 2.72792e-05 -4.89567e-06
-6.97835e-06 1.82356e-05 -1.68095e-06
1.05021e-05 2.73634e-05 -5.37541e-06
-7.28601e-06 1.48341e-05 -1.81301e-06
-6.1004e-06 2.08482e-05 -1.90972e-06
6.54013e-06 1.44004e-06 -1.43652e-07
1.08474e-05 8.01291e-06 -3.62661e-06
1.47251e-05 4.19728e-06 -1.22337e-06
1.85304e-05 5.04785e-06 -1.46977e-06
2.44673e-05 3.5926e-05 -8.52132e-06
-2.50803e-06 1.5687e-05 -3.885e-06
2.67896e-05 3.51347e-05 -7.6179e-06
8.84212e-06 1.75443e-05 -5.02481e-06
-1.15068e-05 3.37815e-05 -4.92054e-06
0.000600581 -0.00108283 0.000426692
4.18613e-07 7.24012e-07 1.93969e-07
-0.00034313 0.00143353 0.000491301
-4.08414e-06 8.1318e-06 -1.52384e-06
-1.10376e-05 1.30412e-05 -1.50028e-06
3.57005e-05 2.5443e-05 -9.14593e-06
1.58596e-05 2.0509e-05 -5.90195e-06
4.55267e-05 2.1438e-05 -5.11597e-06
3.72867e-05 1.6487e-05 -3.20906e-06
-3.01301e-07 4.51338e-07 9.15023e-08
2.88777e-05 2.93974e-05 -8.08518e-06
2.91061e-05 3.51001e-05 -6.42999e-06
-1.03952e-05 2.74111e-05 -3.73688e-06
2.7345e-05 1.2639e-05 -2.97114e-06
1.77595e-05 5.08133e-06 -1.94218e-06
3.98876e-05 3.40095e-05 -6.80508e-06
1.8934e-05 4.92681e-06 -1.99536e-06
1.42131e-05 1.39294e-05 -4.81072e-06
1.7238e-05 4.10856e-05 -9.98112e-06
-4.01135e-06 1.13526e-05 -9.65634e-07
3.64899e-05 4.47587e-05 -8.79266e-06
-7.5463e-06 1.21636e-05 -1.36271e-06
5.99094e-05 3.22812e-05 -6.94518e-06
-3.65789e-06 4.05076e-06 -2.27776e-08
-0.00206836 -0.000171129 0.000826273
6.99854e-06 5.40579e-06 -5.24923e-07
3.28101e-05 1.32797e-05 -2.57452e-06
2.87677e-05 1.28862e-05 -4.30206e-06
-5.41578e-06 8.49842e-06 -6.45207e-07
2.80901e-05 1.01969e-05 -2.39161e-06
2.84299e-05 1.10301e-05 -3.191e-06
0.00148496 -0.00211373 0.000170872
-0.00114698 0.000236648 0.000268442
6.08362e-06 8.72594e-06 -3.43894e-06
2.08349e-05 2.44895e-05 -7.34774e-06
2.23515e-05 1.0786e-05 -3.12673e-06
1.94209e-05 3.40722e-05 -7.04066e-06
1.99471e-05 1.14883e-05 -3.16568e-06
2.12055e-05 1.18841e-05 -2.50438e-06
1.8488e-05 4.05419e-05 -8.86986e-06
0.00125584 0.000139606 0.0010418
2.06959e-06 2.97077e-05 -5.98796e-06
6.38696e-06 3.04443e-06 -1.20601e-06
0.0015728 -0.0015081 -3.7375e-05
-6.36467e-07 3.90153e-06 -1.4749e-07
0.00250397 -0.000188942 -0.000586518
6.40012e-06 3.84865e-05 -7.63935e-06
6.05441e-06 2.30098e-05 -4.84277e-06
0.000154863 -0.000793232 0.00012798
1.88235e-05 1.26309e-05 -4.47954e-06
-0.000478614 -0.000389737 -0.000408575
1.63648e-05 1.31068e-05 -2.9253e-06
-1.0683e-06 1.14076e-05 -1.59554e-06
7.66562e-07 7.94759e-06 -2.5101e-06
4.00781e-05 4.0259e-05 -8.13418e-06
1.0536e-05 5.96558e-06 -2.09196e-06
-0.00182061 -0.00187408 -0.000188061
4.01598e-05 1.3667e-05 -3.8026e-06
1.10581e-05 4.02622e-06 -8.24502e-07
1.73269e-05 1.25082e-05 -2.46773e-06
-0.00156505 -0.00139322 1.79187e-05
-9.47004e-06 2.69691e-05 -3.70768e-06
-1.57575e-06 3.37121e-05 -5.68864e-06
1.73716e-05 1.31596e-05 -2.70313e-06
6.43076e-06 1.23001e-05 -2.88749e-06
3.89939e-06 1.07414e-06 -2.19273e-07
8.79507e-05 0.00203294 -0.00117469
-0.000454886 0.000427201 0.000312688
1.62857e-05 -0.000374749 0.000167651
-4.27534e-06 2.65796e-05 -4.33611e-06
-1.9104e-06 1.05893e-05 -1.68138e-06
-6.15354e-06 8.13698e-06 -5.87526e-07
6.84361e-06 1.16207e-05 -1.84651e-06
0.00025222 -0.000530481 0.000497743
0.000166791 0.00154705 0.000403574
4.61726e-06 6.91904e-07 -6.656e-08
6.15187e-06 4.62087e-07 -3.54937e-07
-2.68621e-06 2.30546e-05 -2.28305e-06
1.68706e-06 3.56038e-07 7.16651e-08
-0.00063002 0.00153036 -0.00049996
4.76057e-06 2.80392e-05 -3.578e-06
-3.8258e-06 6.63844e-06 -8.12655e-07
4.51134e-05 4.37432e-05 -1.10389e-05
4.59655e-07 3.69398e-07 -1.64737e-07
3.71801e-06 2.16813e-05 -2.32161e-06