# vtk DataFile Version 4.2
vtk output
ASCII
DATASET UNSTRUCTURED_GRID

POINTS 343 double
0.00112253 0.00419489 9.87989e-08
0.00217117 0.00498243 0.00217538
0 0.00419538 0.00112517
0.00192988 0.00195436 0.00194218
0.00516847 0.00240588 0.00503236
0.00517156 0.00382923 0.00639763
0.00762244 0.00477356 0.00499923
0.00622464 0.00484921 0.003692
0.00683519 0.00328699 0.00691417
0.00499099 0.00499184 0.00499991
0.004179 0.0011173 0.00999922
0.00527961 0.00207916 0.00790417
0.00418862 -8.34616e-06 0.00831722
0.0020121 0.0020024 0.00803328
0.00428516 0.00253221 0.00999927
0.00695691 0.00644534 0.00694709
0.00641416 0.0061812 0.00518322
0.00226032 0.0021845 0.00514612
0 0.00143586 0.00417514
0.00159451 0.00346611 0.00403703
0.00683654 0.00319228 0.00316181
0.00774405 0.0022108 0.00506425
0 0.00270918 0.00154168
0.00415763 0.00142766 4.27124e-07
0.00500704 0.00218679 0.00219828
0.00396238 0.00352622 0.00160333
0.00134504 -6.57837e-07 0.00406003
0.00418212 -8.70994e-06 0.00168852
0.00262671 0.0069515 2.48469e-07
0.00193857 0.00805268 0.00194494
0.00408815 0.00624769 0.00164532
0.00800396 0.00798389 0.00799744
0.00796431 0.00481351 0.00802247
0.00838868 0.00607729 0.00594818
0.0100011 0.00882216 0.00419227
0.00757816 0.00763379 0.00496388
0.00856954 0.00997738 0.00416674
0.0079784 0.00796899 0.00201633
0.00353556 0.00303617 0.00695955
0.0044368 0.00366134 0.00832409
0.0038914 0.00159988 0.00596907
0.00500614 0.00766751 0.00767674
0.00198983 0.00800781 0.00798964
0.00282829 0.009997 0.00712715
0.00391738 0.00839901 0.00595783
0 0.00695361 0.00262895
0.00164659 0.0062392 0.0040879
0 0.0040177 0.00850214
0.00231506 0.00498561 0.00766151
0.00143326 0.00417443 0.00999995
0.00717535 0.0071164 0.00999795
0.00611823 0.00596958 0.00841742
0.00205211 0.00794136 0.00474185
0.00304398 0.00694272 0.00646772
0.00158699 0.00607831 0.00592602
0.00998911 0.00578037 0.00831484
0 0.00718191 0.00711644
0.00158473 0.00577338 7.53028e-08
0 0.00577432 0.00158701
0.00999475 0.00715411 0.0071143
0.0028671 0.00334907 0.00999975
0.00996847 0.00140523 0.00417444
0.00803514 0.00194033 0.00197936
0.00838869 0.00349953 0.0039985
0.00372495 0.00164741 0.0041284
0.00150969 0.00999965 0.00581501
0.00280857 -4.01946e-06 0.00712773
0.00610913 0.00417022 0.0083759
0.00999418 0.00724614 0.00419459
0.00852617 -2.5183e-05 0.00416769
0.00334159 0.0028693 2.90478e-07
0.0026996 0.00153853 0.00999977
0.00281743 -4.42854e-06 0.00283209
0.00479773 0.00519344 0.00755424
0.00315792 0.00314601 0.00316741
0 0.00849157 0.00581511
0.00486441 0.00366875 0.00378631
0.001537 0.00270863 5.54301e-08
0.00580054 0.0083148 0.00999838
0.00598644 0.00998799 0.00850493
0.00421517 0.0099934 0.00831731
0.00401842 0.00849774 0.00999896
0.0100001 0.00846352 0.00581328
0.00314775 0.00683334 0.00315093
0 0.00748929 0.00137438
0.0013736 0.00748898 3.11131e-08
0 0.00287343 0.00335182
0 0.00580816 0.00831736
0 0.00429792 0.00253898
0.00253372 0.00429575 2.49515e-07
0.00143392 0.00581914 0.00999996
0.00517576 0.00646782 0.00640007
0.00360349 0.00650911 0.00823382
0.00693098 0.00261118 0.00999828
0.00799775 0.00193727 0.00803413
0.00693997 -1.86986e-05 0.00308212
0.00599954 0.00165093 0.00361291
0.00997446 0.00284385 0.00335136
0 0.00140616 0.00256446
0.00637444 0.00821536 0.00642029
0.0057956 0.00142177 7.69416e-07
0.00602169 0.00353966 0.00160353
0.00315803 0.0099961 0.00582513
0.00856469 0.00997757 0.00583181
0.00255365 0.00140267 2.71254e-07
0.00594833 -1.48525e-05 0.00149492
0.00628169 0.0082754 0.00361705
0.00852145 -2.49823e-05 0.00583243
0.00618523 0.00165899 0.00636475
0.00140219 0.00256404 0.01
0.00711254 0.00716611 2.61357e-07
0.00516621 0.00768142 0.00216898
0.00593699 0.00608277 0.00160208
0 0.00686719 0.00578184
0.00996781 0.00137529 0.00256435
0.00177219 0.00360983 0.00640787
0.00999911 0.00845849 0.00262297
0.008404 0.00616821 0.00413214
0.00598506 0.00998725 0.00149381
0.00693969 -1.8399e-05 0.00692565
0.00996903 0.00140506 0.00581831
0.00837856 0.0035515 0.00605983
0.00150155 -8.42362e-07 0.00581519
0 0.0013659 0.00748679
0.00136343 -7.13725e-07 0.0075289
0.00999289 0.00683931 0.00578011
0.00581683 0.00848004 2.53695e-07
0 0.0075208 0.00859127
0.00136524 0.00748642 0.00999989
0.00423184 0.00819974 0.00362821
0.00859808 0.00997742 0.00751024
0.0100013 0.00860233 0.00752396
0.00575364 0.00157423 0.00999864
0.00724483 0.00417179 0.00999811
0 0.0057735 0.00666667
0.0013706 0.00999958 0.00752893
0 0.00863025 0.00752641
0.00855229 -2.56682e-05 0.00250762
0.00999228 0.0069254 0.00262831
0.00845126 0.00632065 0.0021627
0.00850021 0.00580271 0.0099976
0.0074638 0.00135468 0.00999797
0.00855472 -2.52459e-05 0.00751038
0.00996925 0.00133551 0.0074847
0 0.00143551 0.00581971
0.00595018 -1.43576e-05 0.0085048
0.00419183 -8.77359e-06 0.0034001
0.00792014 0.00468812 0.00203448
0.00998045 0.00426909 0.0025386
0.00423285 0.00999314 0.0066661
0.00283748 0.00999704 0.00283193
0.00130672 -7.18607e-07 0.00241834
0 0.00727418 0.00419576
0.0099883 0.00574562 0.00666467
0.00697972 0.00998363 0.00308116
0.00750972 0.00861957 0.00999784
0 0.00574334 0.00336387
0 0.0043297 0.00416652
0.00686207 0.00577007 0.00999826
0.00997627 0.00299304 0.00691336
0.00420461 -8.56123e-06 0.00666645
0.00248112 0.00999745 0.00861136
0.00745821 0.00134553 7.50216e-07
0.00577073 0.00665665 0.00999844
0.00999681 0.00749311 0.00858853
0.0086064 0.0075321 0.00999749
0.00689441 0.00300566 7.82825e-07
0.00335925 0.00574023 4.11995e-07
0.00752785 0.00861221 8.76983e-08
0.00752165 0.00998114 0.0013871
0.00577787 0.00685658 3.33074e-07
0.00696878 0.006356 0.00303318
0.00748051 -2.13591e-05 0.00138827
0.00288035 0.00499698 0.00999965
0.00432543 0.00582821 0.00999904
0.004321 0.00416103 0.00999913
0.00752363 0.00998178 0.00861416
0.00246413 -3.4039e-06 0.00861155
0.00998702 0.00571512 0.00336315
0 0.00302218 0.00691532
0.00998116 0.00398933 0.00849964
0.00848259 0.00399497 5.53196e-07
0.00997322 0.00267919 0.00154178
0 0.00244495 0.00857025
0.00244632 0.00856799 0.00999951
0.0074827 -2.08201e-05 0.00861399
0.00846453 0.00260118 0.00999761
0.00883476 0.00417061 0.00999748
0.00567701 0.00998867 0.00583259
0.00518563 0.00757507 0.00503198
0.00564898 0.00998861 0.00421477
0.00697932 0.009984 0.00692527
0.00302083 0.00691319 0.00999941
0.00415728 0.00432419 5.88877e-07
0.00282049 -4.57829e-06 0.00440479
0.00313658 -5.12171e-06 0.00582557
0.00997961 0.00416624 0.00112525
0.00363871 0.00833279 0.00158841
0.00998111 0.00430105 0.00416564
0.00665738 0.00575952 5.72691e-07
0.00859585 0.009977 0.00250643
0 0.00848692 0.00262374
0.00135235 0.00999962 0.00405987
0 0.00885053 0.00419359
0.00419605 0.00884372 3.09575e-07
0.00421003 0.00999292 0.00168777
0.00498986 0.00478379 0.00237904
0.00720427 0.00450486 6.61579e-07
0.00561448 -1.36345e-05 0.00421563
0.00564257 -1.35669e-05 0.00583306
0.00131386 0.00999964 0.00241806
0.00854379 0.00242096 6.64683e-07
0.00998296 0.00449348 0.00721745
0.00712225 0.0099833 0.0049993
0.00572916 0.00335314 0.00999868
0.00244486 -3.57597e-06 0.00135682
0.00997426 0.00241538 0.00856783
0.00239174 0.00478967 0.00499994
0.0058198 0.00431881 7.41475e-07
0.00830596 0.00578698 3.21766e-07
0.00548611 0.00998951 0.0072196
0.00998162 0.00430166 0.00583177
0.00540895 0.00998928 0.00277533
0.00708209 -1.90457e-05 0.00500007
0.00283993 0.00999706 0.00440433
0 0.00452174 0.00721958
0.00452045 0.00721402 0.00999889
0.00545232 -1.26806e-05 0.00721955
0.00359796 0.0050702 0.00359655
0.00425758 0.00999306 0.00500786
0.00422857 -8.75842e-06 0.00500855
0.00366618 0.00521318 0.00617445
0 0.005744 0.00499998
0 0.00433013 0.00583333
0.00499302 0.00573654 6.23891e-07
0.00498067 0.00633174 0.00355375
0.00537505 -1.28794e-05 0.00277633
0.00998758 0.00571599 0.00499863
0.00368805 0.00640412 0.00484382
0.00573555 0.00499037 0.00999861
0.00998667 0.00574587 0.00158682
0 0.00666667 0
0.00858702 0.00749863 1.51248e-08
0.00331541 -6.8112e-06 1.05582e-06
0 0.01 0.00666667
0.00500746 0.0099907 0.00999896
0 0.00288419 0.00499914
0.00999433 0.00746095 0.00137409
0.00999034 0.0066382 -8.32429e-08
0 0.005 0.01
0.00498279 0.0028749 6.07814e-07
0 0.005 0
0.00996183 -3.18094e-05 0.00333311
0.0100072 0.00997115 0.00666438
0.00419389 0.00726856 3.909e-07
0.00997495 0.00285485 0.00499802
0.00497454 -1.21739e-05 1.20148e-06
0 0 0.00666667
0.00379005 0.00361232 0.00522626
0.00497682 -1.15731e-05 0.0099985
0.00996294 -3.15015e-05 0.00666492
0 0 0.005
0.00878665 0.00997596 0.00121967
0.0100001 0.00875112 0.00121964
0.00996234 -3.15989e-05 0.00499903
0.00998294 0.00497101 1.66139e-07
0.00121543 0.00121918 1.60473e-09
0 0.00122008 0.00122008
0 0.00333333 0.01
0 0.00666667 0.01
0.00878104 0.00875638 -2.01435e-07
0.0100061 0.00997077 0.00333209
0.00422063 0.00999301 0.00339943
0.00999345 0.00663909 0.00999714
0 0.00333333 0
0 0.00122008 0.00877992
0.00121468 -9.13018e-07 0.00877966
0.00121598 0.00121947 0.0100001
0.00878887 0.00997655 0.00877768
0.00122012 0.00877942 0.00999988
0 0.00877992 0.00877992
0.0100025 0.00875189 0.00877717
0.00667369 0.00998434 -2.16561e-07
0.00996652 0.00118883 0.00122044
0.0012212 0.00999941 0.00878012
0.00878414 0.00875717 0.00999748
0.00998602 0.00497201 0.00999717
0 0 0.00333333
0.00663475 -1.81287e-05 1.29448e-06
0.00874286 -2.6779e-05 0.00122096
0.00120569 -9.47588e-07 0.00121214
0 0.00877992 0.00122008
0.00122013 0.00877937 1.16075e-07
0.00121254 0.00999946 0.00121141
0.00996896 0.00118949 0.00877728
0.00875094 0.00119472 0.00999741
0.0066377 -1.75364e-05 0.00999774
0.00874778 0.00119403 7.80202e-07
0.00874533 -2.61959e-05 0.00877741
0.00997563 0.00330361 3.61381e-07
0.00333878 0.00999506 0.00999971
0.00246246 0.00999764 0.00135637
0.00667607 0.00998506 0.00999846
0.00997864 0.00330462 0.00999716
0 0.01 0.005
0.00262455 0.00848444 2.59381e-07
0.0100066 0.00997097 0.00499831
0 0.01 0.00333333
0 0.00166667 0
0.00996133 -3.20957e-05 0.0016671
0 0.00166667 0.01
0 0.00833333 0
0.00999783 0.00830455 -3.43833e-07
0.00996351 -3.1577e-05 0.0083307
0.0100056 0.00997054 0.00166597
0.0100077 0.00997119 0.0083307
0.0016693 0.00999836 0.00999993
0 0.01 0.00833333
0.00834012 0.00997763 -3.27744e-07
0.00829701 -2.52179e-05 1.07256e-06
0.00830017 -2.45933e-05 0.00999727
0.00834285 0.00997821 0.00999776
0 0 0.00833333
0.010001 0.00830545 0.00999709
0.0016574 -2.36587e-06 3.21645e-07
0 0 0.00166667
0.00333852 0.00999527 1.74468e-07
0.0099713 0.00163628 0.00999709
0.00996822 0.00163556 5.07794e-07
0.00165852 -1.93773e-06 0.01
0.00166903 0.00999869 1.02587e-07
0 0.01 0.00166667
0.0100084 0.00997119 0.00999719
0 0 0.01
0.0100052 0.00997036 -6.55492e-07
0.00996401 -3.16838e-05 0.00999676
0 0.01 0.01
0.00996085 -3.23476e-05 8.01775e-07
0 0.01 0
0 0 0
0.00500635 0.00999017 3.25073e-08
0.00331713 -6.10441e-06 0.00999912
0 0.00833333 0.01

CELLS 343 686
1 0
1 1
1 2
1 3
1 4
1 5
1 6
1 7
1 8
1 9
1 10
1 11
1 12
1 13
1 14
1 15
1 16
1 17
1 18
1 19
1 20
1 21
1 22
1 23
1 24
1 25
1 26
1 27
1 28
1 29
1 30
1 31
1 32
1 33
1 34
1 35
1 36
1 37
1 38
1 39
1 40
1 41
1 42
1 43
1 44
1 45
1 46
1 47
1 48
1 49
1 50
1 51
1 52
1 53
1 54
1 55
1 56
1 57
1 58
1 59
1 60
1 61
1 62
1 63
1 64
1 65
1 66
1 67
1 68
1 69
1 70
1 71
1 72
1 73
1 74
1 75
1 76
1 77
1 78
1 79
1 80
1 81
1 82
1 83
1 84
1 85
1 86
1 87
1 88
1 89
1 90
1 91
1 92
1 93
1 94
1 95
1 96
1 97
1 98
1 99
1 100
1 101
1 102
1 103
1 104
1 105
1 106
1 107
1 108
1 109
1 110
1 111
1 112
1 113
1 114
1 115
1 116
1 117
1 118
1 119
1 120
1 121
1 122
1 123
1 124
1 125
1 126
1 127
1 128
1 129
1 130
1 131
1 132
1 133
1 134
1 135
1 136
1 137
1 138
1 139
1 140
1 141
1 142
1 143
1 144
1 145
1 146
1 147
1 148
1 149
1 150
1 151
1 152
1 153
1 154
1 155
1 156
1 157
1 158
1 159
1 160
1 161
1 162
1 163
1 164
1 165
1 166
1 167
1 168
1 169
1 170
1 171
1 172
1 173
1 174
1 175
1 176
1 177
1 178
1 179
1 180
1 181
1 182
1 183
1 184
1 185
1 186
1 187
1 188
1 189
1 190
1 191
1 192
1 193
1 194
1 195
1 196
1 197
1 198
1 199
1 200
1 201
1 202
1 203
1 204
1 205
1 206
1 207
1 208
1 209
1 210
1 211
1 212
1 213
1 214
1 215
1 216
1 217
1 218
1 219
1 220
1 221
1 222
1 223
1 224
1 225
1 226
1 227
1 228
1 229
1 230
1 231
1 232
1 233
1 234
1 235
1 236
1 237
1 238
1 239
1 240
1 241
1 242
1 243
1 244
1 245
1 246
1 247
1 248
1 249
1 250
1 251
1 252
1 253
1 254
1 255
1 256
1 257
1 258
1 259
1 260
1 261
1 262
1 263
1 264
1 265
1 266
1 267
1 268
1 269
1 270
1 271
1 272
1 273
1 274
1 275
1 276
1 277
1 278
1 279
1 280
1 281
1 282
1 283
1 284
1 285
1 286
1 287
1 288
1 289
1 290
1 291
1 292
1 293
1 294
1 295
1 296
1 297
1 298
1 299
1 300
1 301
1 302
1 303
1 304
1 305
1 306
1 307
1 308
1 309
1 310
1 311
1 312
1 313
1 314
1 315
1 316
1 317
1 318
1 319
1 320
1 321
1 322
1 323
1 324
1 325
1 326
1 327
1 328
1 329
1 330
1 331
1 332
1 333
1 334
1 335
1 336
1 337
1 338
1 339
1 340
1 341
1 342

CELL_TYPES 343
1
1
1
1
1
1
1
1
1
1
1
1
1
1
1
1
1
1
1
1
1
1
1
1
1
1
1
1
1
1
1
1
1
1
1
1
1
1
1
1
1
1
1
1
1
1
1
1
1
1
1
1
1
1
1
1
1
1
1
1
1
1
1
1
1
1
1
1
1
1
1
1
1
1
1
1
1
1
1
1
1
1
1
1
1
1
1
1
1
1
1
1
1
1
1
1
1
1
1
1
1
1
1
1
1
1
1
1
1
1
1
1
1
1
1
1
1
1
1
1
1
1
1
1
1
1
1
1
1
1
1
1
1
1
1
1
1
1
1
1
1
1
1
1
1
1
1
1
1
1
1
1
1
1
1
1
1
1
1
1
1
1
1
1
1
1
1
1
1
1
1
1
1
1
1
1
1
1
1
1
1
1
1
1
1
1
1
1
1
1
1
1
1
1
1
1
1
1
1
1
1
1
1
1
1
1
1
1
1
1
1
1
1
1
1
1
1
1
1
1
1
1
1
1
1
1
1
1
1
1
1
1
1
1
1
1
1
1
1
1
1
1
1
1
1
1
1
1
1
1
1
1
1
1
1
1
1
1
1
1
1
1
1
1
1
1
1
1
1
1
1
1
1
1
1
1
1
1
1
1
1
1
1
1
1
1
1
1
1
1
1
1
1
1
1
1
1
1
1
1
1
1
1
1
1
1
1
1
1
1
1
1
1
1
1
1
1
1
1
1
1
1
1
1
1
1
1
1
1
1
1
1
1
1
1
1
1
1
1
1
1
1
1

POINT_DATA 343
FIELD FieldData 8

NodeID_(#) 1 343 int
0
1
2
3
4
5
6
7
8
9
10
11
12
13
14
15
16
17
18
19
20
21
22
23
24
25
26
27
28
29
30
31
32
33
34
35
36
37
38
39
40
41
42
43
44
45
46
47
48
49
50
51
52
53
54
55
56
57
58
59
60
61
62
63
64
65
66
67
68
69
70
71
72
73
74
75
76
77
78
79
80
81
82
83
84
85
86
87
88
89
90
91
92
93
94
95
96
97
98
99
100
101
102
103
104
105
106
107
108
109
110
111
112
113
114
115
116
117
118
119
120
121
122
123
124
125
126
127
128
129
130
131
132
133
134
135
136
137
138
139
140
141
142
143
144
145
146
147
148
149
150
151
152
153
154
155
156
157
158
159
160
161
162
163
164
165
166
167
168
169
170
171
172
173
174
175
176
177
178
179
180
181
182
183
184
185
186
187
188
189
190
191
192
193
194
195
196
197
198
199
200
201
202
203
204
205
206
207
208
209
210
211
212
213
214
215
216
217
218
219
220
221
222
223
224
225
226
227
228
229
230
231
232
233
234
235
236
237
238
239
240
241
242
243
244
245
246
247
248
249
250
251
252
253
254
255
256
257
258
259
260
261
262
263
264
265
266
267
268
269
270
271
272
273
274
275
276
277
278
279
280
281
282
283
284
285
286
287
288
289
290
291
292
293
294
295
296
297
298
299
300
301
302
303
304
305
306
307
308
309
310
311
312
313
314
315
316
317
318
319
320
321
322
323
324
325
326
327
328
329
330
331
332
333
334
335
336
337
338
339
340
341
342

Component_(#) 1 343 int
0
0
0
0
0
0
0
0
0
0
0
0
0
0
0
0
0
0
0
0
0
0
0
0
0
0
0
0
0
0
0
0
0
0
0
0
0
0
0
0
0
0
0
0
0
0
0
0
0
0
0
0
0
0
0
0
0
0
0
0
0
0
0
0
0
0
0
0
0
0
0
0
0
0
0
0
0
0
0
0
0
0
0
0
0
0
0
0
0
0
0
0
0
0
0
0
0
0
0
0
0
0
0
0
0
0
0
0
0
0
0
0
0
0
0
0
0
0
0
0
0
0
0
0
0
0
0
0
0
0
0
0
0
0
0
0
0
0
0
0
0
0
0
0
0
0
0
0
0
0
0
0
0
0
0
0
0
0
0
0
0
0
0
0
0
0
0
0
0
0
0
0
0
0
0
0
0
0
0
0
0
0
0
0
0
0
0
0
0
0
0
0
0
0
0
0
0
0
0
0
0
0
0
0
0
0
0
0
0
0
0
0
0
0
0
0
0
0
0
0
0
0
0
0
0
0
0
0
0
0
0
0
0
0
0
0
0
0
0
0
0
0
0
0
0
0
0
0
0
0
0
0
0
0
0
0
0
0
0
0
0
0
0
0
0
0
0
0
0
0
0
0
0
0
0
0
0
0
0
0
0
0
0
0
0
0
0
0
0
0
0
0
0
0
0
0
0
0
0
0
0
0
0
0
0
0
0
0
0
0
0
0
0
0
0
0
0
0
0
0
0
0
0
0
0
0
0
0
0
0
0
0
0
0
0
0
0
0
0
0
0
0
0

NodalMass_(kg) 1 343 double
3.15563e-06
1.41304e-05
2.20912e-06
1.71484e-05
8.42e-06
9.09306e-06
9.93033e-06
7.52198e-06
6.81096e-06
5.58223e-06
3.10888e-06
1.07575e-05
4.87011e-06
1.64955e-05
3.0246e-06
8.05984e-06
6.703e-06
1.0877e-05
4.18978e-06
8.16106e-06
6.14143e-06
1.17902e-05
2.23114e-06
4.25176e-06
1.09915e-05
7.41467e-06
4.21871e-06
3.92484e-06
3.08766e-06
1.31268e-05
7.72627e-06
1.65404e-05
1.19037e-05
7.29666e-06
3.81683e-06
1.11001e-05
3.81317e-06
1.39137e-05
6.37414e-06
8.00975e-06
7.6712e-06
1.18847e-05
1.6399e-05
2.78633e-06
8.93599e-06
2.58087e-06
7.57362e-06
4.23241e-06
1.31286e-05
3.80168e-06
2.7746e-06
7.16776e-06
1.21307e-05
5.11765e-06
8.19728e-06
4.58094e-06
2.79503e-06
3.26126e-06
4.12443e-06
2.11915e-06
3.35177e-06
3.61669e-06
1.56838e-05
7.33679e-06
8.24695e-06
5.00369e-06
2.82625e-06
7.20276e-06
3.26815e-06
4.18751e-06
2.02785e-06
2.42152e-06
3.11835e-06
5.97459e-06
5.87101e-06
4.09374e-06
5.45463e-06
2.28825e-06
4.49759e-06
4.38192e-06
4.50892e-06
4.39234e-06
4.27273e-06
5.32031e-06
1.53201e-06
2.38869e-06
2.02885e-06
4.38798e-06
3.17972e-06
3.14298e-06
4.61567e-06
5.87645e-06
8.18088e-06
2.48341e-06
1.53815e-05
3.49683e-06
7.35227e-06
2.01314e-06
2.0408e-06
7.98183e-06
4.41293e-06
7.1389e-06
1.20123e-06
5.03343e-06
1.61257e-06
4.12601e-06
8.73748e-06
4.37849e-06
7.97173e-06
2.13557e-06
3.38137e-06
9.48623e-06
7.40262e-06
1.80226e-06
2.10222e-06
7.98889e-06
1.87983e-06
7.44814e-06
4.19782e-06
2.37156e-06
4.31705e-06
6.06441e-06
4.30905e-06
2.16843e-06
1.8986e-06
1.81294e-06
3.89762e-06
2.44299e-06
1.65628e-06
8.01374e-06
1.64513e-06
2.3931e-06
3.01363e-06
2.99431e-06
1.36541e-06
1.87293e-06
2.09622e-06
1.94762e-06
1.87618e-06
6.37913e-06
4.58628e-06
2.02767e-06
1.61999e-06
2.41284e-06
3.8865e-06
4.44973e-06
2.29839e-06
1.17349e-05
3.11811e-06
1.354e-06
3.45063e-06
1.81846e-06
2.9382e-06
1.37381e-06
2.41464e-06
2.10451e-06
2.63927e-06
2.14166e-06
1.7943e-06
3.19976e-06
1.36989e-06
2.43489e-06
2.08158e-06
1.3601e-06
2.17203e-06
1.89924e-06
3.16996e-06
2.6119e-06
2.37677e-06
1.60225e-06
1.90684e-06
5.49206e-06
1.87878e-06
3.14313e-06
2.97301e-06
1.18454e-06
1.89263e-06
2.04166e-06
2.73572e-06
2.42405e-06
3.23083e-06
3.19752e-06
3.2142e-06
1.94492e-06
1.61196e-06
1.86876e-06
3.22435e-06
2.1114e-06
2.96917e-06
6.15288e-06
2.3097e-06
2.39729e-06
2.38029e-06
2.64508e-06
1.66557e-06
1.82377e-06
2.06583e-06
5.73271e-06
2.08467e-06
2.18324e-06
2.43522e-06
3.1188e-06
3.17316e-06
2.05447e-06
1.9592e-06
3.05718e-06
6.44327e-06
2.08796e-06
2.72615e-06
2.15709e-06
1.86812e-06
2.0028e-06
2.10999e-06
2.88994e-06
2.3222e-06
2.3979e-06
1.97629e-06
6.4127e-06
2.16225e-06
3.29198e-06
2.10223e-06
2.66566e-06
1.94415e-06
2.91865e-06
2.58116e-06
2.11703e-06
2.09534e-06
1.91719e-06
7.06046e-06
2.25203e-06
2.06378e-06
6.28159e-06
2.12147e-06
2.90924e-06
2.12921e-06
6.4487e-06
1.41701e-06
2.0682e-06
6.58062e-06
2.52584e-06
2.39732e-06
7.42191e-07
2.22368e-06
7.06751e-07
7.00657e-07
8.93749e-07
2.53536e-06
2.26535e-06
1.33607e-06
7.84725e-07
2.32303e-06
6.06694e-07
6.68276e-07
6.84307e-07
2.51242e-06
2.31629e-06
7.8367e-07
6.80839e-07
6.22692e-06
6.7471e-07
6.65305e-07
7.01158e-07
1.8232e-06
1.90695e-06
6.86722e-07
7.04792e-07
1.86445e-06
2.28572e-06
6.8045e-07
7.16005e-07
1.82373e-06
6.01079e-07
2.02791e-06
7.4579e-07
5.74423e-07
1.80052e-06
1.454e-06
2.2702e-06
1.80636e-06
2.15356e-06
1.79089e-06
1.79456e-06
6.8231e-07
2.24737e-06
1.45239e-06
1.79556e-06
6.97875e-07
6.24265e-07
6.62717e-07
1.44627e-06
1.40138e-06
2.15258e-06
1.82851e-06
1.3994e-06
1.43932e-06
2.19226e-06
6.97732e-07
1.77726e-06
1.79162e-06
6.54258e-07
7.3397e-07
2.34895e-06
7.10392e-07
6.56982e-07
6.26314e-07
2.18926e-06
6.12493e-07
6.03901e-07
5.92831e-07
5.12031e-07
5.11667e-07
4.9467e-07
4.97016e-07
4.96269e-07
5.33079e-07
4.94191e-07
4.97855e-07
4.86862e-07
4.90626e-07
4.94649e-07
4.94954e-07
4.91922e-07
4.89615e-07
4.96354e-07
4.95189e-07
4.82188e-07
1.10854e-06
5.3299e-07
5.44763e-07
5.36655e-07
5.15417e-07
5.01772e-07
5.53774e-07
5.53774e-07
5.53774e-07
5.53774e-07
5.53774e-07
5.53774e-07
5.50785e-07
5.50785e-07
7.45291e-07
7.11668e-07
4.9897e-07

NodalForce_(N) 3 343 double
1.15907e-07 8.3981e-09 -4.88468e-09
7.70753e-07 4.68995e-08 1.26952e-07
0.000390226 0.000431075 0.000457793
1.19611e-06 1.70905e-07 8.6993e-08
1.39109e-06 9.71766e-07 6.37194e-07
4.9034e-07 6.8245e-07 8.07709e-07
6.06573e-07 1.96878e-06 1.62711e-06
7.32575e-07 8.78324e-07 7.88055e-07
5.43651e-07 1.21969e-06 1.0104e-06
2.55672e-07 3.11965e-07 4.1476e-07
9.19061e-08 3.458e-07 2.06302e-07
9.26606e-07 1.41137e-06 1.10361e-06
6.37061e-07 6.43887e-07 3.61341e-07
-1.30276e-08 1.09335e-07 1.32932e-07
-6.911e-08 2.20101e-07 2.02716e-07
-8.86781e-07 1.07381e-06 1.25972e-06
-1.66267e-07 7.24705e-07 8.38857e-07
4.34623e-07 1.13269e-07 1.81034e-07
-0.00135268 0.000753224 -0.000173
2.371e-07 1.83522e-08 5.8586e-08
1.32234e-06 1.16641e-06 7.09817e-07
2.63065e-06 3.1833e-06 1.95194e-06
-0.000571731 -0.00173551 -0.000902825
1.1212e-06 4.89803e-07 1.0203e-07
2.68699e-06 1.38181e-06 5.86093e-07
1.05608e-06 3.1283e-07 2.45033e-07
2.34838e-07 5.08891e-08 2.48048e-08
1.18236e-06 5.60335e-07 1.24568e-07
2.50414e-07 2.37352e-08 1.54379e-08
4.91042e-07 6.05213e-08 7.71512e-08
6.40038e-07 1.71081e-07 2.76043e-07
-4.39951e-06 3.31519e-06 3.35042e-06
-6.7916e-07 2.55076e-06 2.39039e-06
-5.13582e-07 1.68036e-06 1.46993e-06
-9.09382e-07 1.3589e-06 9.37625e-07
-1.39611e-06 1.95134e-06 1.84114e-06
-1.05436e-06 1.10289e-06 7.55109e-07
-8.00729e-07 2.86329e-06 2.06937e-06
2.18938e-07 1.99941e-07 2.72457e-07
-7.41055e-08 3.8073e-07 5.82749e-07
9.70631e-07 6.29315e-07 3.4366e-07
-1.55411e-06 7.31014e-07 1.08224e-06
-5.03226e-07 2.39606e-08 2.00746e-07
-2.55506e-07 9.83206e-08 7.85579e-08
-5.66481e-07 3.68512e-07 4.54934e-07
0.00097567 0.000797625 -0.000399394
1.46068e-07 1.13806e-08 4.84617e-08
-0.000185806 0.00109442 3.33366e-05
-2.67221e-07 6.21819e-08 2.29213e-07
-1.05939e-07 8.88328e-09 1.03346e-08
-7.35206e-07 4.26499e-07 4.77319e-07
-8.76445e-07 6.85635e-07 9.50561e-07
1.32802e-07 3.48441e-08 1.4087e-07
-7.88979e-08 3.45336e-08 1.54219e-07
-1.17192e-08 1.02448e-08 6.70694e-08
-7.75327e-07 1.58085e-06 1.28268e-06
0.000820363 0.000626142 0.000715045
1.56745e-07 6.00679e-09 2.65671e-10
-0.000134764 4.19111e-07 -0.000371796
-4.72355e-07 7.25285e-07 5.75204e-07
-2.19848e-07 5.55584e-08 8.52052e-08
1.07497e-06 1.64912e-06 8.45452e-07
5.50352e-06 4.75818e-06 2.17017e-06
1.27201e-06 2.04007e-06 1.30604e-06
1.32827e-06 6.33967e-07 3.01142e-07
-9.4441e-08 2.68032e-08 3.44742e-08
3.45658e-07 1.89797e-07 6.94712e-08
-2.02131e-07 8.11956e-07 9.53774e-07
-4.07573e-07 1.12883e-06 7.94571e-07
1.72651e-06 1.66828e-06 7.5444e-07
3.13435e-07 7.85213e-08 3.016e-08
-5.5122e-08 9.69569e-08 6.03206e-08
5.96249e-07 2.35949e-07 5.88411e-08
-1.91709e-07 2.87231e-07 5.03934e-07
5.36141e-07 1.18644e-07 1.61913e-07
0.00147818 0.00061989 0.00035082
7.17844e-07 3.94714e-07 3.50696e-07
1.29853e-07 3.54362e-09 3.12696e-09
-1.21135e-06 4.60046e-07 5.465e-07
-1.32512e-06 6.15743e-07 5.74601e-07
-8.39944e-07 3.39788e-07 3.18726e-07
-7.85333e-07 2.19672e-07 2.66515e-07
-1.14618e-06 1.48e-06 1.12392e-06
2.31262e-07 5.05558e-08 1.39471e-07
2.82755e-05 -0.0011347 0.000407359
8.80151e-08 1.60121e-09 -2.8592e-09
0.000112089 -0.000710302 0.000447801
-0.000778893 -0.000335064 6.76777e-05
-0.000297839 0.000297868 -0.000172344
2.8913e-07 3.54149e-08 2.15679e-08
-1.59854e-07 4.31699e-09 9.63179e-09
-3.10184e-07 3.42113e-07 5.25856e-07
-5.59412e-07 9.7471e-08 4.18557e-07
1.58289e-08 5.08054e-07 3.89816e-07
2.05903e-06 4.45551e-06 3.11151e-06
1.43816e-06 1.03807e-06 3.86231e-07
1.97621e-06 1.36339e-06 6.5101e-07
4.4666e-07 8.28617e-07 4.49953e-07
-4.89878e-05 0.000132198 -3.00739e-06
-1.26805e-06 9.84122e-07 1.07303e-06
1.64689e-06 8.68501e-07 2.31798e-07
1.63735e-06 9.99906e-07 5.47185e-07
-9.08622e-08 5.02353e-08 4.11975e-08
-1.67501e-06 1.44741e-06 1.07468e-06
2.44499e-07 7.39491e-08 1.34044e-08
1.72211e-06 9.76438e-07 2.79705e-07
-6.06319e-07 1.0679e-06 9.47162e-07
1.53651e-06 1.72502e-06 8.76985e-07
1.43376e-06 1.5145e-06 9.89529e-07
-3.95896e-08 3.30131e-09 5.43099e-09
2.11789e-07 5.29067e-07 3.17002e-07
2.10716e-07 6.80193e-07 6.14563e-07
6.86026e-07 6.2664e-07 5.67859e-07
-0.000768364 -0.00036439 -0.000830584
7.46608e-07 9.73388e-07 4.46341e-07
3.11204e-08 2.38293e-08 7.38607e-08
-3.03151e-07 6.62661e-07 4.22499e-07
-8.69946e-08 1.73534e-06 1.37136e-06
-3.56421e-07 6.27413e-07 3.60979e-07
6.64257e-07 6.87264e-07 3.66983e-07
1.03023e-06 1.95295e-06 1.1014e-06
5.91517e-07 1.65454e-06 1.21233e-06
1.81723e-07 5.83068e-08 2.87399e-08
0.000274392 0.000214996 0.000133966
4.69311e-08 1.97533e-08 8.11704e-09
-2.73183e-07 6.23202e-07 4.74069e-07
1.07095e-07 4.40435e-07 2.37167e-07
-0.000106014 -0.000772645 -0.000465735
-5.51768e-08 -5.86693e-09 7.76087e-09
-6.17758e-08 3.93608e-07 3.96303e-07
-6.53108e-07 4.80698e-07 3.69917e-07
-8.22921e-07 8.29219e-07 6.67317e-07
1.37623e-07 5.27492e-07 3.5039e-07
-2.57796e-07 5.34355e-07 5.09272e-07
0.000592773 -0.00118371 -0.000129781
-5.5817e-08 1.31457e-08 4.52228e-09
5.23245e-05 7.27261e-05 -0.000246552
9.19697e-07 8.00611e-07 3.03273e-07
-9.06866e-08 6.51098e-07 4.19708e-07
2.70116e-07 1.52897e-06 1.04808e-06
-9.5026e-07 1.09997e-06 1.00881e-06
1.6729e-07 5.69086e-07 3.68347e-07
4.71923e-07 6.49033e-07 3.60314e-07
4.44928e-07 1.09534e-06 6.52062e-07
-0.00109405 0.000321427 9.47713e-05
8.44484e-07 9.95444e-07 5.79133e-07
6.37728e-07 3.2908e-07 9.62021e-08
1.92771e-06 2.67504e-06 1.67546e-06
4.58546e-07 1.17719e-06 6.80064e-07
-2.05582e-07 1.08695e-07 8.86779e-08
-7.09261e-08 1.16641e-07 8.23545e-08
1.2126e-07 2.57745e-08 -8.46467e-10
-0.000297256 -0.000742236 -9.14233e-05
-1.40135e-07 4.76303e-07 3.69868e-07
-4.22226e-07 4.83749e-07 3.12103e-07
-7.4299e-07 4.00431e-07 3.84837e-07
0.000537081 -0.000873619 0.000274044
-0.00155256 0.000150153 0.000523591
-3.24228e-07 2.41607e-07 2.7987e-07
2.68979e-07 1.27939e-06 8.63623e-07
2.6006e-07 1.8911e-07 8.04138e-08
-2.68791e-07 7.81234e-08 6.02581e-08
8.8774e-07 6.17974e-07 1.97506e-07
-2.62182e-07 1.17588e-07 1.66076e-07
-6.56945e-07 7.39271e-07 6.15309e-07
-6.23062e-07 4.55888e-07 4.28405e-07
1.01873e-06 6.5671e-07 2.54265e-07
2.76296e-07 2.59525e-08 3.33732e-08
-5.8368e-08 4.68332e-07 2.61765e-07
-2.30318e-07 3.78355e-07 2.1243e-07
1.83222e-07 1.6789e-07 1.13272e-07
1.29242e-07 7.66769e-07 6.75809e-07
9.07831e-07 6.48784e-07 2.02406e-07
-2.53723e-07 1.17563e-08 9.54774e-08
-3.5152e-07 8.7201e-08 2.16522e-07
-8.79738e-08 4.21231e-08 8.50736e-08
-7.35183e-07 4.36151e-07 3.53699e-07
1.41461e-07 1.11103e-07 4.20114e-08
5.26364e-08 9.63768e-07 6.30072e-07
0.000316167 -0.000747874 -0.000644302
-1.44206e-07 1.20197e-06 8.97171e-07
8.64401e-07 9.15964e-07 4.03095e-07
9.37655e-07 1.35216e-06 6.45383e-07
0.000331204 -0.000849363 0.000441908
-1.60232e-07 2.48697e-08 4.31341e-08
4.29836e-07 6.16188e-07 3.56214e-07
3.89276e-08 9.67557e-07 7.08129e-07
-2.07201e-07 6.05583e-07 4.92576e-07
-5.52827e-07 3.96672e-07 3.25582e-07
-3.05274e-07 4.2065e-07 5.17137e-07
-3.12647e-07 3.09403e-07 2.1962e-07
-7.22676e-07 4.70896e-07 3.91727e-07
-2.31182e-07 1.55894e-08 8.87753e-08
4.13738e-07 1.00178e-07 6.46345e-08
2.7252e-07 1.24273e-07 3.61879e-08
2.95651e-07 1.56291e-07 4.72638e-08
4.11441e-07 7.97363e-07 4.01037e-07
1.96515e-07 2.28253e-07 1.79197e-07
1.85882e-07 7.77833e-07 4.95784e-07
3.37845e-07 2.92073e-07 1.63545e-07
-5.47019e-07 7.22312e-07 4.43583e-07
0.00030355 -0.000430262 0.000224381
-4.98019e-09 1.37212e-08 2.15134e-08
-3.0652e-05 0.000518158 0.000144853
7.58904e-08 1.29695e-07 5.91969e-08
-9.47908e-08 2.47227e-07 1.38846e-07
7.92269e-07 3.74897e-07 3.81823e-07
4.85815e-07 3.94445e-07 1.86791e-07
8.75428e-07 5.90984e-07 2.17822e-07
5.79578e-07 4.63827e-07 2.16604e-07
2.00059e-08 8.26856e-09 5.42538e-09
7.56924e-07 6.60817e-07 2.49852e-07
-7.13398e-08 7.6964e-07 5.75217e-07
-7.11305e-07 5.95575e-07 4.45804e-07
-1.06905e-07 2.61414e-07 2.66309e-07
4.47539e-07 1.51259e-07 1.80553e-08
1.34955e-07 8.28052e-07 5.41468e-07
1.35648e-07 4.01701e-08 1.15353e-07
4.75612e-07 2.42668e-07 1.21795e-07
4.75992e-07 7.94058e-07 4.1069e-07
-4.74407e-07 2.55828e-07 2.21225e-07
8.29408e-08 9.85987e-07 6.86836e-07
-1.74339e-07 2.42312e-07 1.57497e-07
1.02141e-06 8.78859e-07 4.06928e-07
-1.09396e-07 8.70642e-08 6.08091e-08
-0.000789565 -0.000160543 0.000244636
-3.55917e-07 9.14466e-08 1.61896e-07
4.12235e-07 3.82525e-07 2.00906e-07
4.47267e-07 1.35273e-07 2.55747e-07
-2.46034e-07 1.8324e-07 1.32441e-07
5.01495e-07 2.9553e-07 9.86168e-08
6.2122e-08 1.14935e-07 2.69208e-07
0.000791841 -0.000838928 1.23943e-06
-0.000245033 -4.87143e-05 0.000223692
2.90131e-07 1.06316e-07 8.16763e-08
2.54969e-07 3.10346e-07 4.24899e-07
4.98411e-07 2.91394e-07 8.99934e-08
-7.9803e-08 7.19512e-07 5.18888e-07
1.18846e-07 1.08185e-07 2.60275e-07
-3.10971e-07 2.0233e-07 2.9748e-07
1.73948e-07 8.5442e-07 4.88927e-07
0.000407905 -2.07127e-06 0.000315413
5.13328e-08 5.55625e-07 3.08625e-07
1.88071e-07 8.37557e-08 -1.44697e-09
0.000633569 -0.000566327 -7.79847e-06
-2.56967e-07 1.04271e-07 7.36201e-08
0.00110407 -0.00023346 -0.000245185
-1.11921e-07 7.85406e-07 4.57082e-07
7.15856e-08 4.6744e-07 2.3954e-07
8.25074e-05 -0.000355078 5.59408e-05
5.9741e-07 2.49653e-07 9.20477e-08
-0.000268962 -0.000305174 -0.000259642
2.95764e-07 3.48393e-07 1.46216e-07
-2.85703e-07 2.71015e-07 1.89215e-07
2.12275e-07 9.57763e-08 6.95335e-08
3.86864e-07 9.41027e-07 5.70195e-07
3.0662e-07 1.6113e-07 1.5997e-08
-0.000784283 -0.000832691 -0.000109078
4.09349e-07 1.86994e-07 2.61808e-07
7.28725e-08 1.26563e-07 6.9522e-08
2.15837e-07 3.41897e-07 1.75368e-07
-0.000664456 -0.000621205 -3.36566e-05
-3.52818e-07 5.69981e-07 3.10641e-07
-2.66805e-07 6.9468e-07 3.90876e-07
2.65318e-07 3.54757e-07 1.67168e-07
1.22625e-07 2.63856e-07 1.22655e-07
1.00187e-07 1.5779e-08 9.98121e-10
0.000198639 0.000786754 -0.000346427
-0.000146525 0.000138778 0.000122342
1.97793e-05 -0.000251411 8.57428e-05
-1.31287e-07 5.15824e-07 2.75711e-07
-1.81107e-07 2.40949e-07 1.44868e-07
-1.38298e-07 1.63897e-07 1.03835e-07
-2.14276e-07 2.53627e-07 2.01771e-07
2.48724e-05 -0.00019578 0.000111556
0.00013344 0.00062774 0.000178991
2.47008e-08 2.11445e-08 1.67655e-08
-2.02653e-08 1.21728e-08 3.4593e-09
-8.15294e-07 5.55823e-07 4.22424e-07
-6.69543e-08 1.90845e-09 9.61448e-09
-2.55456e-06 0.000504831 -0.000179314
-7.23097e-07 6.31606e-07 5.0511e-07
-4.71303e-08 1.3365e-07 6.6588e-08
9.32843e-07 1.07466e-06 4.25886e-07
-5.23967e-08 1.31118e-08 7.32664e-09
-7.49262e-07 4.91229e-07 4.11714e-07
-1.15914e-07 2.48665e-07 1.88559e-07
-0.000742239 -0.000690427 -0.000135279
3.22696e-07 1.97639e-07 3.83605e-08