# vtk DataFile Version 4.2
vtk output
ASCII
DATASET UNSTRUCTURED_GRID

POINTS 343 double
0.00112275 0.00419489 9.87846e-08
0.00217149 0.00498243 0.00217543
0 0.00419538 0.00112517
0.00193018 0.00195437 0.00194221
0.00516889 0.00240604 0.00503282
0.00517158 0.00382933 0.00639815
0.0076228 0.00477384 0.00500032
0.00622527 0.00484937 0.00369269
0.00683515 0.00328723 0.0069151
0.00499123 0.00499191 0.00500035
0.00417852 0.00111745 0.00999966
0.00527942 0.00207933 0.00790479
0.00418852 -8.17123e-06 0.00831765
0.00201202 0.0020024 0.00803333
0.0042846 0.0025323 0.00999973
0.00695659 0.00644551 0.00694807
0.00641432 0.00618134 0.00518399
0.00226045 0.00218452 0.0051462
0 0.00143586 0.00417514
0.00159465 0.00346612 0.00403706
0.00683749 0.00319254 0.00316263
0.00774463 0.00221117 0.00506537
0 0.00270918 0.00154168
0.0041588 0.00142783 7.22419e-07
0.005008 0.00218696 0.00219873
0.00396314 0.00352628 0.00160362
0.00134519 -6.32645e-07 0.00406006
0.00418312 -8.47518e-06 0.00168883
0.00262737 0.00695152 3.48865e-07
0.00193885 0.0080527 0.00194498
0.00408885 0.00624773 0.00164563
0.00800319 0.00798414 0.00799876
0.00796383 0.00481379 0.00802376
0.00838868 0.0060776 0.00594952
0.0100014 0.00882265 0.00419402
0.00757828 0.00763402 0.00496496
0.00856967 0.00997778 0.0041681
0.00797929 0.00796927 0.00201747
0.00353556 0.00303621 0.00695979
0.00443648 0.00366139 0.00832455
0.00389161 0.0016 0.00596932
0.00500572 0.00766757 0.0076773
0.00198972 0.0080078 0.0079897
0.00282813 0.00999706 0.00712729
0.00391735 0.00839907 0.00595811
0 0.00695361 0.00262895
0.00164672 0.0062392 0.00408794
0 0.0040177 0.00850214
0.00231498 0.00498562 0.0076616
0.00143311 0.00417444 0.00999998
0.00717421 0.00711658 0.00999909
0.00611763 0.0059697 0.00841826
0.00205223 0.00794138 0.00474191
0.00304397 0.00694273 0.00646787
0.00158701 0.00607831 0.00592606
0.00998847 0.00578083 0.00831671
0 0.00718191 0.00711644
0.00158505 0.00577339 9.63673e-08
0 0.00577432 0.00158701
0.00999432 0.00715457 0.00711615
0.00286661 0.00334908 0.00999995
0.00996945 0.00140586 0.00417615
0.00803661 0.00194076 0.00198047
0.00838947 0.00349992 0.00399976
0.00372539 0.00164752 0.0041286
0.00150969 0.00999966 0.00581505
0.0028087 -3.9252e-06 0.00712787
0.00610866 0.00417036 0.00837674
0.00999457 0.00724662 0.00419633
0.00852724 -2.4609e-05 0.00416899
0.00334247 0.00286937 4.74764e-07
0.00269918 0.00153857 0.00999996
0.00281795 -4.30215e-06 0.0028322
0.00479747 0.0051935 0.00755475
0.0031583 0.00314604 0.00316756
0 0.00849157 0.00581511
0.00486496 0.00366885 0.00378671
0.00153731 0.00270863 7.42042e-08
0.00579946 0.00831491 0.00999919
0.00598561 0.00998817 0.00850577
0.00421463 0.00999351 0.00831775
0.00401768 0.00849778 0.00999938
0.00999987 0.00846398 0.00581509
0.00314808 0.00683336 0.00315108
0 0.00748929 0.00137438
0.00137387 0.00748899 3.55099e-08
0 0.00287343 0.00335182
0 0.00580816 0.00831736
0 0.00429792 0.00253898
0.00253435 0.00429577 3.46639e-07
0.00143374 0.00581915 0.00999999
0.00517565 0.00646789 0.0064006
0.00360316 0.00650912 0.00823412
0.00693024 0.00261144 0.00999933
0.00799753 0.00193765 0.00803542
0.00694121 -1.82574e-05 0.00308295
0.0060004 0.0016512 0.00361353
0.00997553 0.00284442 0.00335306
0 0.00140616 0.00256446
0.00637417 0.00821551 0.0064211
0.00579722 0.00142206 1.35066e-06
0.00602286 0.00353986 0.00160419
0.003158 0.00999616 0.00582532
0.00856434 0.00997796 0.00583321
0.00255436 0.00140274 3.81984e-07
0.00594976 -1.44918e-05 0.00149555
0.00628211 0.00827556 0.00361777
0.00852206 -2.44223e-05 0.00583378
0.00618543 0.00165925 0.0063655
0.00140206 0.00256404 0.01
0.00711391 0.00716633 1.17073e-06
0.00516692 0.00768153 0.00216947
0.00593798 0.00608289 0.00160273
0 0.00686719 0.00578184
0.00996924 0.00137595 0.00256601
0.0017722 0.00360983 0.00640791
0.00999983 0.00845898 0.00262468
0.0084045 0.00616853 0.00413342
0.00598584 0.00998746 0.00149451
0.00693992 -1.79958e-05 0.0069266
0.00996954 0.00140568 0.00582008
0.00837875 0.00355188 0.00606117
0.00150164 -8.19844e-07 0.00581522
0 0.0013659 0.00748679
0.00136344 -7.04084e-07 0.00752891
0.00999287 0.00683978 0.00578191
0.00581801 0.00848021 8.8755e-07
0 0.0075208 0.00859127
0.00136507 0.0074864 0.00999992
0.00423219 0.00819981 0.00362849
0.00859725 0.00997781 0.00751171
0.0100006 0.00860279 0.00752584
0.00575299 0.00157446 0.00999941
0.00724393 0.00417202 0.00999925
0 0.0057735 0.00666667
0.00137053 0.0099996 0.00752894
0 0.00863025 0.00752641
0.00855383 -2.50674e-05 0.00250887
0.00999315 0.0069259 0.00263001
0.0084523 0.006321 0.00216395
0.00849909 0.00580302 0.00999907
0.00746314 0.00135505 0.00999918
0.00855485 -2.46879e-05 0.0075118
0.00996929 0.00133613 0.00748653
0 0.00143551 0.00581971
0.00595 -1.40565e-05 0.0085056
0.00419257 -8.55173e-06 0.00340038
0.00792134 0.00468844 0.00203558
0.00998161 0.00426962 0.00254028
0.0042326 0.00999325 0.00666646
0.00283773 0.00999709 0.00283206
0.00130694 -6.85073e-07 0.00241835
0 0.00727418 0.00419576
0.00998814 0.00574609 0.00666649
0.00698015 0.00998391 0.00308206
0.00750845 0.00861979 0.00999907
0 0.00574334 0.00336387
0 0.0043297 0.00416652
0.00686105 0.00577023 0.00999931
0.0099763 0.00299359 0.00691518
0.0042048 -8.3702e-06 0.00666678
0.0024808 0.0099975 0.0086115
0.00746012 0.00134596 1.70302e-06
0.00576978 0.00665675 0.00999925
0.00999592 0.00749356 0.00859042
0.00860511 0.00753239 0.009999
0.0068961 0.00300596 1.6114e-06
0.00336008 0.00574025 6.02977e-07
0.00752916 0.00861249 1.11805e-06
0.00752251 0.00998148 0.00138816
0.00577912 0.00685671 9.58752e-07
0.00696948 0.00635619 0.00303405
0.00748223 -2.08427e-05 0.00138924
0.00287985 0.00499696 0.00999987
0.0043247 0.00582824 0.00999953
0.00432035 0.00416106 0.00999962
0.00752258 0.00998208 0.00861539
0.00246406 -3.34185e-06 0.00861167
0.00998781 0.00571561 0.00336485
0 0.00302218 0.00691532
0.00998065 0.00398983 0.00850151
0.00848442 0.00399538 1.76487e-06
0.00997481 0.00267979 0.00154341
0 0.00244495 0.00857025
0.00244586 0.008568 0.00999969
0.00748251 -2.03738e-05 0.00861518
0.00846371 0.00260157 0.00999907
0.0088338 0.00417098 0.00999904
0.00567681 0.00998885 0.00583322
0.00518575 0.00757516 0.00503247
0.00564916 0.00998879 0.00421535
0.00697875 0.00998426 0.00692627
0.00302031 0.0069132 0.00999966
0.00415833 0.00432424 9.09248e-07
0.00282086 -4.46668e-06 0.0044049
0.00313686 -4.99617e-06 0.00582571
0.00998117 0.00416679 0.00112688
0.00363929 0.00833285 0.00158867
0.00998181 0.00430157 0.00416737
0.00665883 0.00575972 1.36117e-06
0.00859644 0.00997741 0.00250777
0 0.00848692 0.00262374
0.00135242 0.00999963 0.0040599
0 0.00885053 0.00419359
0.00419696 0.00884383 6.61351e-07
0.00421061 0.00999302 0.00168812
0.00499063 0.00478387 0.00237948
0.00720588 0.00450513 1.56537e-06
0.00561528 -1.33154e-05 0.00421616
0.00564299 -1.326e-05 0.00583365
0.00131401 0.00999964 0.00241807
0.00854577 0.00242144 1.87769e-06
0.00998276 0.00449397 0.00721928
0.00712218 0.00998358 0.00500028
0.0057284 0.00335327 0.00999946
0.00244546 -3.45569e-06 0.0013569
0.00997389 0.00241595 0.00856969
0.00239186 0.00478968 0.00500003
0.0058212 0.00431897 1.36478e-06
0.00830759 0.00578735 1.51454e-06
0.00548563 0.00998967 0.00722024
0.00998184 0.00430216 0.00583356
0.00540943 0.00998945 0.00277588
0.00708284 -1.86091e-05 0.005001
0.00284005 0.0099971 0.00440445
0 0.00452174 0.00721958
0.00451964 0.00721406 0.00999941
0.00545242 -1.24026e-05 0.00722016
0.00359832 0.00507022 0.00359675
0.00425762 0.00999317 0.00500818
0.00422907 -8.54892e-06 0.00500882
0.00366622 0.00521321 0.00617469
0 0.005744 0.00499998
0 0.00433013 0.00583333
0.00499419 0.00573663 1.09466e-06
0.00498114 0.0063318 0.00355417
0.00537611 -1.25664e-05 0.00277683
0.0099879 0.00571647 0.0050004
0.00368824 0.00640415 0.00484403
0.00573469 0.00499045 0.0099994
0.00998795 0.00574637 0.00158847
0 0.00666667 0
0.00858851 0.00749899 1.29509e-06
0.00331643 -6.63795e-06 1.23719e-06
0 0.01 0.00666667
0.00500644 0.00999084 0.00999959
0 0.00288419 0.00499914
0.00999549 0.00746145 0.00137575
0.00999195 0.0066387 1.55684e-06
0 0.005 0.01
0.00498411 0.00287506 1.05828e-06
0 0.005 0
0.00996321 -3.1061e-05 0.00333479
0.0100065 0.00997168 0.00666623
0.00419485 0.00726862 7.33635e-07
0.00997555 0.00285542 0.00499978
0.00497605 -1.18646e-05 1.62254e-06
0 0 0.00666667
0.00379026 0.00361236 0.00522648
0.00497638 -1.13021e-05 0.00999914
0.00996337 -3.0774e-05 0.00666671
0 0 0.005
0.00878757 0.00997641 0.00122105
0.0100011 0.00875164 0.00122132
0.00996325 -3.08604e-05 0.00500077
0.00998471 0.00497156 1.7858e-06
0.00121568 0.00121919 1.28225e-08
0 0.00122008 0.00122008
0 0.00333333 0.01
0 0.00666667 0.01
0.0087824 0.00875679 1.14513e-06
0.0100064 0.00997133 0.00333384
0.00422093 0.00999312 0.00339973
0.00999227 0.00663953 0.00999903
0 0.00333333 0
0 0.00122008 0.00877992
0.00121465 -8.96927e-07 0.00877971
0.00121588 0.00121948 0.0100001
0.00878768 0.00997695 0.00877925
0.00121997 0.00877941 0.00999991
0 0.00877992 0.00877992
0.0100015 0.00875235 0.00877907
0.00667486 0.00998463 6.42838e-07
0.00996835 0.00118951 0.00122205
0.00122109 0.00999942 0.00878016
0.00878272 0.00875751 0.00999905
0.00998499 0.00497247 0.00999906
0 0 0.00333333
0.00663665 -1.76915e-05 2.04796e-06
0.00874476 -2.61454e-05 0.00122223
0.00120593 -9.097e-07 0.00121216
0 0.00877992 0.00122008
0.00122036 0.00877939 1.25369e-07
0.00121271 0.00999947 0.00121145
0.00996866 0.00119012 0.00877915
0.00875027 0.00119523 0.00999895
0.00663714 -1.71315e-05 0.00999878
0.0087499 0.0011946 2.0342e-06
0.00874512 -2.56189e-05 0.00877895
0.00997757 0.00330419 1.95977e-06
0.0033381 0.00999513 0.01
0.00246285 0.00999767 0.00135648
0.00667479 0.00998528 0.00999948
0.00997778 0.00330514 0.00999904
0 0.01 0.005
0.00262517 0.00848449 3.74936e-07
0.0100065 0.00997152 0.0050001
0 0.01 0.00333333
0 0.00166667 0
0.00996317 -3.13326e-05 0.00166871
0 0.00166667 0.01
0 0.00833333 0
0.00999926 0.00830508 1.31035e-06
0.00996347 -3.08588e-05 0.00833256
0.0100064 0.00997112 0.00166767
0.0100066 0.00997171 0.00833261
0.00166902 0.00999839 0.01
0 0.01 0.00833333
0.00834133 0.00997806 9.31571e-07
0.00829919 -2.46046e-05 2.20535e-06
0.00829962 -2.40404e-05 0.00999873
0.00834136 0.00997858 0.00999921
0 0 0.00833333
0.0099996 0.0083059 0.00999899
0.00165784 -2.2922e-06 3.66782e-07
0 0 0.00166667
0.00333924 0.00999536 3.9734e-07
0.00997062 0.00163689 0.00999897
0.00997032 0.00163623 2.08959e-06
0.00165842 -1.8949e-06 0.0100001
0.00166935 0.00999872 1.59546e-07
0 0.01 0.00166667
0.0100068 0.0099717 0.00999909
0 0 0.01
0.0100065 0.00997096 1.02789e-06
0.00996351 -3.09593e-05 0.00999866
0 0.01 0.01
0.00996314 -3.15816e-05 2.36392e-06
0 0.01 0
0 0 0
0.00500735 0.00999034 5.33233e-07
0.00331676 -5.94656e-06 0.00999943
0 0.00833333 0.01

CELLS 343 686
1 0
1 1
1 2
1 3
1 4
1 5
1 6
1 7
1 8
1 9
1 10
1 11
1 12
1 13
1 14
1 15
1 16
1 17
1 18
1 19
1 20
1 21
1 22
1 23
1 24
1 25
1 26
1 27
1 28
1 29
1 30
1 31
1 32
1 33
1 34
1 35
1 36
1 37
1 38
1 39
1 40
1 41
1 42
1 43
1 44
1 45
1 46
1 47
1 48
1 49
1 50
1 51
1 52
1 53
1 54
1 55
1 56
1 57
1 58
1 59
1 60
1 61
1 62
1 63
1 64
1 65
1 66
1 67
1 68
1 69
1 70
1 71
1 72
1 73
1 74
1 75
1 76
1 77
1 78
1 79
1 80
1 81
1 82
1 83
1 84
1 85
1 86
1 87
1 88
1 89
1 90
1 91
1 92
1 93
1 94
1 95
1 96
1 97
1 98
1 99
1 100
1 101
1 102
1 103
1 104
1 105
1 106
1 107
1 108
1 109
1 110
1 111
1 112
1 113
1 114
1 115
1 116
1 117
1 118
1 119
1 120
1 121
1 122
1 123
1 124
1 125
1 126
1 127
1 128
1 129
1 130
1 131
1 132
1 133
1 134
1 135
1 136
1 137
1 138
1 139
1 140
1 141
1 142
1 143
1 144
1 145
1 146
1 147
1 148
1 149
1 150
1 151
1 152
1 153
1 154
1 155
1 156
1 157
1 158
1 159
1 160
1 161
1 162
1 163
1 164
1 165
1 166
1 167
1 168
1 169
1 170
1 171
1 172
1 173
1 174
1 175
1 176
1 177
1 178
1 179
1 180
1 181
1 182
1 183
1 184
1 185
1 186
1 187
1 188
1 189
1 190
1 191
1 192
1 193
1 194
1 195
1 196
1 197
1 198
1 199
1 200
1 201
1 202
1 203
1 204
1 205
1 206
1 207
1 208
1 209
1 210
1 211
1 212
1 213
1 214
1 215
1 216
1 217
1 218
1 219
1 220
1 221
1 222
1 223
1 224
1 225
1 226
1 227
1 228
1 229
1 230
1 231
1 232
1 233
1 234
1 235
1 236
1 237
1 238
1 239
1 240
1 241
1 242
1 243
1 244
1 245
1 246
1 247
1 248
1 249
1 250
1 251
1 252
1 253
1 254
1 255
1 256
1 257
1 258
1 259
1 260
1 261
1 262
1 263
1 264
1 265
1 266
1 267
1 268
1 269
1 270
1 271
1 272
1 273
1 274
1 275
1 276
1 277
1 278
1 279
1 280
1 281
1 282
1 283
1 284
1 285
1 286
1 287
1 288
1 289
1 290
1 291
1 292
1 293
1 294
1 295
1 296
1 297
1 298
1 299
1 300
1 301
1 302
1 303
1 304
1 305
1 306
1 307
1 308
1 309
1 310
1 311
1 312
1 313
1 314
1 315
1 316
1 317
1 318
1 319
1 320
1 321
1 322
1 323
1 324
1 325
1 326
1 327
1 328
1 329
1 330
1 331
1 332
1 333
1 334
1 335
1 336
1 337
1 338
1 339
1 340
1 341
1 342

CELL_TYPES 343
1
1
1
1
1
1
1
1
1
1
1
1
1
1
1
1
1
1
1
1
1
1
1
1
1
1
1
1
1
1
1
1
1
1
1
1
1
1
1
1
1
1
1
1
1
1
1
1
1
1
1
1
1
1
1
1
1
1
1
1
1
1
1
1
1
1
1
1
1
1
1
1
1
1
1
1
1
1
1
1
1
1
1
1
1
1
1
1
1
1
1
1
1
1
1
1
1
1
1
1
1
1
1
1
1
1
1
1
1
1
1
1
1
1
1
1
1
1
1
1
1
1
1
1
1
1
1
1
1
1
1
1
1
1
1
1
1
1
1
1
1
1
1
1
1
1
1
1
1
1
1
1
1
1
1
1
1
1
1
1
1
1
1
1
1
1
1
1
1
1
1
1
1
1
1
1
1
1
1
1
1
1
1
1
1
1
1
1
1
1
1
1
1
1
1
1
1
1
1
1
1
1
1
1
1
1
1
1
1
1
1
1
1
1
1
1
1
1
1
1
1
1
1
1
1
1
1
1
1
1
1
1
1
1
1
1
1
1
1
1
1
1
1
1
1
1
1
1
1
1
1
1
1
1
1
1
1
1
1
1
1
1
1
1
1
1
1
1
1
1
1
1
1
1
1
1
1
1
1
1
1
1
1
1
1
1
1
1
1
1
1
1
1
1
1
1
1
1
1
1
1
1
1
1
1
1
1
1
1
1
1
1
1
1
1
1
1
1
1
1
1
1
1
1
1
1
1
1
1
1
1
1
1
1
1
1
1
1
1
1
1
1
1

POINT_DATA 343
FIELD FieldData 8

NodeID_(#) 1 343 int
0
1
2
3
4
5
6
7
8
9
10
11
12
13
14
15
16
17
18
19
20
21
22
23
24
25
26
27
28
29
30
31
32
33
34
35
36
37
38
39
40
41
42
43
44
45
46
47
48
49
50
51
52
53
54
55
56
57
58
59
60
61
62
63
64
65
66
67
68
69
70
71
72
73
74
75
76
77
78
79
80
81
82
83
84
85
86
87
88
89
90
91
92
93
94
95
96
97
98
99
100
101
102
103
104
105
106
107
108
109
110
111
112
113
114
115
116
117
118
119
120
121
122
123
124
125
126
127
128
129
130
131
132
133
134
135
136
137
138
139
140
141
142
143
144
145
146
147
148
149
150
151
152
153
154
155
156
157
158
159
160
161
162
163
164
165
166
167
168
169
170
171
172
173
174
175
176
177
178
179
180
181
182
183
184
185
186
187
188
189
190
191
192
193
194
195
196
197
198
199
200
201
202
203
204
205
206
207
208
209
210
211
212
213
214
215
216
217
218
219
220
221
222
223
224
225
226
227
228
229
230
231
232
233
234
235
236
237
238
239
240
241
242
243
244
245
246
247
248
249
250
251
252
253
254
255
256
257
258
259
260
261
262
263
264
265
266
267
268
269
270
271
272
273
274
275
276
277
278
279
280
281
282
283
284
285
286
287
288
289
290
291
292
293
294
295
296
297
298
299
300
301
302
303
304
305
306
307
308
309
310
311
312
313
314
315
316
317
318
319
320
321
322
323
324
325
326
327
328
329
330
331
332
333
334
335
336
337
338
339
340
341
342

Component_(#) 1 343 int
0
0
0
0
0
0
0
0
0
0
0
0
0
0
0
0
0
0
0
0
0
0
0
0
0
0
0
0
0
0
0
0
0
0
0
0
0
0
0
0
0
0
0
0
0
0
0
0
0
0
0
0
0
0
0
0
0
0
0
0
0
0
0
0
0
0
0
0
0
0
0
0
0
0
0
0
0
0
0
0
0
0
0
0
0
0
0
0
0
0
0
0
0
0
0
0
0
0
0
0
0
0
0
0
0
0
0
0
0
0
0
0
0
0
0
0
0
0
0
0
0
0
0
0
0
0
0
0
0
0
0
0
0
0
0
0
0
0
0
0
0
0
0
0
0
0
0
0
0
0
0
0
0
0
0
0
0
0
0
0
0
0
0
0
0
0
0
0
0
0
0
0
0
0
0
0
0
0
0
0
0
0
0
0
0
0
0
0
0
0
0
0
0
0
0
0
0
0
0
0
0
0
0
0
0
0
0
0
0
0
0
0
0
0
0
0
0
0
0
0
0
0
0
0
0
0
0
0
0
0
0
0
0
0
0
0
0
0
0
0
0
0
0
0
0
0
0
0
0
0
0
0
0
0
0
0
0
0
0
0
0
0
0
0
0
0
0
0
0
0
0
0
0
0
0
0
0
0
0
0
0
0
0
0
0
0
0
0
0
0
0
0
0
0
0
0
0
0
0
0
0
0
0
0
0
0
0
0
0
0
0
0
0
0
0
0
0
0
0
0
0
0
0
0
0
0
0
0
0
0
0
0
0
0
0
0
0
0
0
0
0
0
0

NodalMass_(kg) 1 343 double
3.15563e-06
1.41304e-05
2.20912e-06
1.71484e-05
8.42e-06
9.09306e-06
9.93033e-06
7.52198e-06
6.81096e-06
5.58223e-06
3.10888e-06
1.07575e-05
4.87011e-06
1.64955e-05
3.0246e-06
8.05984e-06
6.703e-06
1.0877e-05
4.18978e-06
8.16106e-06
6.14143e-06
1.17902e-05
2.23114e-06
4.25176e-06
1.09915e-05
7.41467e-06
4.21871e-06
3.92484e-06
3.08766e-06
1.31268e-05
7.72627e-06
1.65404e-05
1.19037e-05
7.29666e-06
3.81683e-06
1.11001e-05
3.81317e-06
1.39137e-05
6.37414e-06
8.00975e-06
7.6712e-06
1.18847e-05
1.6399e-05
2.78633e-06
8.93599e-06
2.58087e-06
7.57362e-06
4.23241e-06
1.31286e-05
3.80168e-06
2.7746e-06
7.16776e-06
1.21307e-05
5.11765e-06
8.19728e-06
4.58094e-06
2.79503e-06
3.26126e-06
4.12443e-06
2.11915e-06
3.35177e-06
3.61669e-06
1.56838e-05
7.33679e-06
8.24695e-06
5.00369e-06
2.82625e-06
7.20276e-06
3.26815e-06
4.18751e-06
2.02785e-06
2.42152e-06
3.11835e-06
5.97459e-06
5.87101e-06
4.09374e-06
5.45463e-06
2.28825e-06
4.49759e-06
4.38192e-06
4.50892e-06
4.39234e-06
4.27273e-06
5.32031e-06
1.53201e-06
2.38869e-06
2.02885e-06
4.38798e-06
3.17972e-06
3.14298e-06
4.61567e-06
5.87645e-06
8.18088e-06
2.48341e-06
1.53815e-05
3.49683e-06
7.35227e-06
2.01314e-06
2.0408e-06
7.98183e-06
4.41293e-06
7.1389e-06
1.20123e-06
5.03343e-06
1.61257e-06
4.12601e-06
8.73748e-06
4.37849e-06
7.97173e-06
2.13557e-06
3.38137e-06
9.48623e-06
7.40262e-06
1.80226e-06
2.10222e-06
7.98889e-06
1.87983e-06
7.44814e-06
4.19782e-06
2.37156e-06
4.31705e-06
6.06441e-06
4.30905e-06
2.16843e-06
1.8986e-06
1.81294e-06
3.89762e-06
2.44299e-06
1.65628e-06
8.01374e-06
1.64513e-06
2.3931e-06
3.01363e-06
2.99431e-06
1.36541e-06
1.87293e-06
2.09622e-06
1.94762e-06
1.87618e-06
6.37913e-06
4.58628e-06
2.02767e-06
1.61999e-06
2.41284e-06
3.8865e-06
4.44973e-06
2.29839e-06
1.17349e-05
3.11811e-06
1.354e-06
3.45063e-06
1.81846e-06
2.9382e-06
1.37381e-06
2.41464e-06
2.10451e-06
2.63927e-06
2.14166e-06
1.7943e-06
3.19976e-06
1.36989e-06
2.43489e-06
2.08158e-06
1.3601e-06
2.17203e-06
1.89924e-06
3.16996e-06
2.6119e-06
2.37677e-06
1.60225e-06
1.90684e-06
5.49206e-06
1.87878e-06
3.14313e-06
2.97301e-06
1.18454e-06
1.89263e-06
2.04166e-06
2.73572e-06
2.42405e-06
3.23083e-06
3.19752e-06
3.2142e-06
1.94492e-06
1.61196e-06
1.86876e-06
3.22435e-06
2.1114e-06
2.96917e-06
6.15288e-06
2.3097e-06
2.39729e-06
2.38029e-06
2.64508e-06
1.66557e-06
1.82377e-06
2.06583e-06
5.73271e-06
2.08467e-06
2.18324e-06
2.43522e-06
3.1188e-06
3.17316e-06
2.05447e-06
1.9592e-06
3.05718e-06
6.44327e-06
2.08796e-06
2.72615e-06
2.15709e-06
1.86812e-06
2.0028e-06
2.10999e-06
2.88994e-06
2.3222e-06
2.3979e-06
1.97629e-06
6.4127e-06
2.16225e-06
3.29198e-06
2.10223e-06
2.66566e-06
1.94415e-06
2.91865e-06
2.58116e-06
2.11703e-06
2.09534e-06
1.91719e-06
7.06046e-06
2.25203e-06
2.06378e-06
6.28159e-06
2.12147e-06
2.90924e-06
2.12921e-06
6.4487e-06
1.41701e-06
2.0682e-06
6.58062e-06
2.52584e-06
2.39732e-06
7.42191e-07
2.22368e-06
7.06751e-07
7.00657e-07
8.93749e-07
2.53536e-06
2.26535e-06
1.33607e-06
7.84725e-07
2.32303e-06
6.06694e-07
6.68276e-07
6.84307e-07
2.51242e-06
2.31629e-06
7.8367e-07
6.80839e-07
6.22692e-06
6.7471e-07
6.65305e-07
7.01158e-07
1.8232e-06
1.90695e-06
6.86722e-07
7.04792e-07
1.86445e-06
2.28572e-06
6.8045e-07
7.16005e-07
1.82373e-06
6.01079e-07
2.02791e-06
7.4579e-07
5.74423e-07
1.80052e-06
1.454e-06
2.2702e-06
1.80636e-06
2.15356e-06
1.79089e-06
1.79456e-06
6.8231e-07
2.24737e-06
1.45239e-06
1.79556e-06
6.97875e-07
6.24265e-07
6.62717e-07
1.44627e-06
1.40138e-06
2.15258e-06
1.82851e-06
1.3994e-06
1.43932e-06
2.19226e-06
6.97732e-07
1.77726e-06
1.79162e-06
6.54258e-07
7.3397e-07
2.34895e-06
7.10392e-07
6.56982e-07
6.26314e-07
2.18926e-06
6.12493e-07
6.03901e-07
5.92831e-07
5.12031e-07
5.11667e-07
4.9467e-07
4.97016e-07
4.96269e-07
5.33079e-07
4.94191e-07
4.97855e-07
4.86862e-07
4.90626e-07
4.94649e-07
4.94954e-07
4.91922e-07
4.89615e-07
4.96354e-07
4.95189e-07
4.82188e-07
1.10854e-06
5.3299e-07
5.44763e-07
5.36655e-07
5.15417e-07
5.01772e-07
5.53774e-07
5.53774e-07
5.53774e-07
5.53774e-07
5.53774e-07
5.53774e-07
5.50785e-07
5.50785e-07
7.45291e-07
7.11668e-07
4.9897e-07

NodalForce_(N) 3 343 double
-1.25196e-07 1.03933e-08 -8.08105e-09
-8.38523e-07 1.624e-07 -2.11644e-07
0.000441904 0.000430155 0.000440653
-2.24392e-07 2.42502e-07 -2.01243e-07
1.19142e-06 1.15918e-06 -1.08446e-06
1.41587e-06 1.01127e-06 -1.28483e-06
1.32108e-07 2.52423e-06 -3.19607e-06
-7.02521e-07 1.21489e-06 -1.53079e-06
1.79894e-06 1.52866e-06 -1.82986e-06
2.47198e-08 5.19791e-07 -6.65226e-07
1.24145e-06 3.77252e-07 -4.12029e-07
3.70646e-06 1.69252e-06 -1.86056e-06
1.8078e-06 6.59849e-07 -5.64996e-07
1.34138e-06 2.11808e-07 -2.76577e-07
1.05152e-06 2.93032e-07 -4.27017e-07
5.21007e-07 1.57663e-06 -2.24369e-06
-4.04884e-07 1.09518e-06 -1.46049e-06
4.09325e-07 1.85121e-07 -2.06291e-07
-0.00135012 0.000747363 -0.000219988
-2.88311e-08 3.00277e-08 -4.16146e-08
-2.15343e-07 1.4055e-06 -1.56744e-06
2.34026e-06 3.6631e-06 -3.96367e-06
-0.000572899 -0.00173941 -0.000886558
-4.41153e-07 5.08285e-07 -4.86567e-07
-2.50501e-07 1.59771e-06 -1.72747e-06
-8.35988e-07 4.8847e-07 -7.7516e-07
1.69857e-07 2.59587e-08 -3.2098e-08
2.2242e-07 4.88277e-07 -4.53477e-07
-6.20053e-07 5.20618e-08 -1.32795e-07
-1.1271e-06 6.02441e-08 -1.88223e-07
-1.57435e-06 3.44162e-07 -8.36565e-07
7.50065e-07 4.57441e-06 -6.34216e-06
3.31677e-06 3.31249e-06 -4.49357e-06
-3.91221e-08 2.19696e-06 -2.90099e-06
-1.52106e-06 1.64957e-06 -2.04717e-06
-2.2069e-06 2.7193e-06 -3.49213e-06
-1.75643e-06 1.29953e-06 -1.54133e-06
-6.87513e-06 3.80481e-06 -5.07098e-06
7.71708e-07 3.17963e-07 -3.92919e-07
1.81729e-06 6.1907e-07 -1.07057e-06
1.3238e-06 6.97815e-07 -4.96067e-07
4.22883e-07 1.22952e-06 -1.86277e-06
2.6797e-07 1.95725e-07 -2.41723e-07
-1.98964e-07 1.01716e-07 -9.11796e-08
-7.39725e-07 5.73678e-07 -6.17125e-07
0.000998994 0.000824898 -0.000394328
-2.02313e-07 6.00049e-08 -6.80622e-08
-0.000269198 0.0010801 -1.05496e-05
5.15917e-07 1.4804e-07 -2.87595e-07
2.08581e-07 2.02516e-08 -2.74696e-08
6.84637e-07 6.11584e-07 -9.30835e-07
1.33812e-06 1.07173e-06 -1.73367e-06
-4.49389e-07 5.53762e-08 -1.63052e-07
-2.69638e-08 1.08576e-07 -1.92865e-07
2.28024e-08 4.27142e-08 -7.48545e-08
9.80929e-07 1.9649e-06 -2.57081e-06
0.000855612 0.000602446 0.000716185
-2.71317e-07 2.21093e-08 -3.36062e-08
-0.000104468 -8.4139e-06 -0.000361664
2.14332e-09 8.99746e-07 -1.17878e-06
6.94658e-07 1.10081e-07 -2.2047e-07
6.31894e-07 1.79413e-06 -1.95092e-06
-8.56084e-07 5.29544e-06 -5.74852e-06
5.68785e-08 2.42768e-06 -2.87629e-06
8.29194e-07 6.91757e-07 -4.69984e-07
-1.92469e-07 1.80802e-08 -3.1694e-08
5.61871e-07 1.79477e-07 -9.97181e-08
2.11213e-06 1.15504e-06 -1.72832e-06
-9.13616e-07 1.38237e-06 -1.75382e-06
1.21533e-06 1.70156e-06 -1.70487e-06
-3.20567e-07 9.66059e-08 -1.45199e-07
5.99121e-07 1.14388e-07 -1.45121e-07
3.27015e-07 1.93721e-07 -1.07221e-07
8.62275e-07 4.82632e-07 -8.43352e-07
-2.80959e-08 2.08787e-07 -2.29686e-07
0.00152854 0.000612381 0.000328506
-1.93543e-08 5.48245e-07 -6.42483e-07
-1.14059e-07 1.0402e-08 -1.75607e-08
7.52714e-07 6.97588e-07 -1.06158e-06
-1.50271e-07 7.63926e-07 -1.06414e-06
-9.26173e-08 3.96254e-07 -5.50404e-07
5.2946e-07 3.59051e-07 -5.31913e-07
-9.27774e-07 1.82617e-06 -2.3265e-06
-4.78165e-07 1.1527e-07 -2.1752e-07
6.16275e-05 -0.00113189 0.000423646
-1.90826e-07 -4.1477e-09 -8.55834e-09
0.000108254 -0.00073532 0.000456124
-0.000911452 -0.000360803 6.07474e-05
-0.000313143 0.000297617 -0.000159922
-4.87478e-07 6.49201e-08 -1.24158e-07
2.50448e-07 1.33466e-08 -3.64612e-08
9.29314e-08 5.76248e-07 -8.441e-07
7.93329e-07 2.64649e-07 -6.9109e-07
1.33468e-06 6.21753e-07 -7.87897e-07
7.49679e-06 5.16284e-06 -5.78682e-06
5.95636e-07 1.02167e-06 -9.4537e-07
7.09038e-07 1.50909e-06 -1.43581e-06
-2.66466e-08 9.40685e-07 -1.08898e-06
-4.26552e-05 0.000144936 2.27412e-05
-6.38953e-07 1.41744e-06 -1.77571e-06
-5.73436e-07 9.11722e-07 -9.63638e-07
-1.06583e-06 1.25156e-06 -1.61298e-06
-1.36027e-07 6.4265e-08 -5.48233e-08
-1.52321e-06 1.72551e-06 -2.05627e-06
-1.23162e-07 7.68891e-08 -7.16468e-08
2.37892e-07 9.37449e-07 -9.40716e-07
-2.63761e-06 1.50791e-06 -1.8531e-06
1.93476e-06 1.77307e-06 -1.78494e-06
2.46829e-06 1.71295e-06 -1.66902e-06
1.43576e-07 3.73962e-09 -1.51294e-08
-1.87174e-06 7.18965e-07 -1.08535e-06
-3.00594e-06 1.02877e-06 -1.50341e-06
-2.32165e-06 9.79282e-07 -1.63343e-06
-0.000823724 -0.00035599 -0.000862508
6.12841e-08 1.04652e-06 -1.13737e-06
2.24034e-07 5.91679e-08 -9.83081e-08
-9.7263e-07 8.08038e-07 -1.02562e-06
-1.34018e-06 2.26212e-06 -2.90231e-06
-2.28533e-06 7.60959e-07 -9.47171e-07
1.16495e-06 7.06713e-07 -6.4094e-07
1.41825e-06 2.14103e-06 -2.33885e-06
1.20064e-06 1.98868e-06 -2.41828e-06
2.55084e-07 4.54064e-08 -2.82062e-08
0.000224975 0.000158076 0.000162486
1.2977e-07 2.33254e-08 -2.43033e-09
-1.78896e-07 7.65333e-07 -9.85873e-07
-2.17172e-06 5.79992e-07 -8.91963e-07
-0.0001025 -0.000768595 -0.00048301
7.4324e-08 1.13701e-08 -1.7807e-08
-1.52675e-06 5.88976e-07 -6.13493e-07
-2.46281e-07 5.71647e-07 -7.07014e-07
-1.67979e-07 1.01954e-06 -1.33695e-06
1.62955e-06 5.91055e-07 -6.99003e-07
1.35618e-06 7.0701e-07 -1.02309e-06
0.000691512 -0.00115812 -0.000103147
-2.78593e-08 4.04656e-09 -8.98405e-09
4.28773e-05 9.87531e-05 -0.000203173
2.73748e-07 8.05441e-07 -8.0585e-07
-7.49703e-07 7.86924e-07 -1.01658e-06
-2.37974e-06 1.95415e-06 -2.56084e-06
1.70066e-06 1.44482e-06 -2.01889e-06
1.30929e-06 6.37129e-07 -7.26708e-07
9.62364e-07 6.73077e-07 -6.71663e-07
1.1756e-06 1.20778e-06 -1.32697e-06
-0.00109656 0.000316956 6.36612e-05
2.43979e-06 1.03769e-06 -9.96229e-07
3.57391e-07 3.01834e-07 -2.01915e-07
-2.93004e-06 3.34517e-06 -4.17218e-06
-6.205e-07 1.39528e-06 -1.67599e-06
-1.61261e-07 1.2686e-07 -1.24706e-07
-6.40158e-07 1.40057e-07 -1.14524e-07
3.86622e-08 9.94365e-09 -5.94505e-09
-0.00033522 -0.000770247 -6.20018e-05
9.71216e-08 5.88555e-07 -7.51813e-07
-1.1751e-06 5.8092e-07 -6.53771e-07
3.3144e-07 5.51375e-07 -7.74451e-07
0.000514748 -0.000902271 0.000266022
-0.0014836 0.000141907 0.000545368
5.97806e-07 3.5484e-07 -5.67872e-07
9.86673e-07 1.47429e-06 -1.75114e-06
4.19348e-07 1.87764e-07 -1.19648e-07
-2.87661e-08 7.17621e-08 -9.48756e-08
-3.2755e-07 6.56059e-07 -7.17059e-07
3.39655e-07 1.8278e-07 -3.24511e-07
2.37032e-07 9.22686e-07 -1.22088e-06
4.65393e-07 6.14292e-07 -8.57307e-07
-8.02089e-07 7.60612e-07 -9.61089e-07
-6.22885e-07 6.67324e-08 -2.03736e-07
-1.60206e-06 5.98194e-07 -8.50219e-07
-1.04331e-06 4.43383e-07 -5.48109e-07
-8.73857e-07 2.51515e-07 -4.33871e-07
-1.44622e-06 1.08873e-06 -1.48507e-06
8.47778e-08 6.35443e-07 -6.34552e-07
5.32196e-07 8.64678e-08 -2.16698e-07
7.31694e-07 1.82871e-07 -4.39022e-07
3.49261e-07 8.50793e-08 -1.77992e-07
-7.12572e-08 5.2075e-07 -6.80196e-07
4.35555e-07 1.21933e-07 -6.91268e-08
-6.45424e-07 1.18039e-06 -1.46701e-06
0.000324184 -0.000706748 -0.000590383
1.20882e-06 1.4344e-06 -1.80971e-06
-1.2268e-06 1.08584e-06 -1.37071e-06
-5.39036e-07 1.52135e-06 -1.73313e-06
0.000311544 -0.000849838 0.000446272
1.39977e-07 5.27886e-08 -8.37397e-08
1.2058e-06 6.45135e-07 -6.32819e-07
1.97516e-06 1.14556e-06 -1.4027e-06
1.05576e-06 7.50861e-07 -9.85466e-07
-5.84585e-07 4.87794e-07 -4.94613e-07
-7.25068e-07 6.65609e-07 -8.07517e-07
-7.30352e-07 3.80124e-07 -3.7292e-07
-3.94564e-07 5.69709e-07 -6.56927e-07
3.37453e-07 4.09436e-08 -1.81492e-07
-6.4627e-07 1.64523e-07 -3.35891e-07
2.23976e-07 1.1435e-07 -5.24817e-08
3.47908e-07 1.44157e-07 -7.41396e-08
-6.58976e-07 9.30406e-07 -1.12486e-06
-1.42135e-06 3.22512e-07 -5.08959e-07
-1.05747e-07 9.24852e-07 -1.12811e-06
-9.50999e-07 4.00434e-07 -6.29092e-07
-1.49561e-06 8.41401e-07 -1.00781e-06
0.00036429 -0.000479654 0.000186066
-1.37491e-07 1.86429e-08 -1.51473e-08
-1.0333e-05 0.00050167 0.000183958
-8.10887e-07 1.64795e-07 -2.59301e-07
-1.13427e-06 3.08338e-07 -3.41787e-07
-9.45818e-07 5.76918e-07 -9.29451e-07
-7.70944e-07 4.97744e-07 -6.82183e-07
6.13204e-07 5.78047e-07 -4.43399e-07
7.46782e-07 4.6278e-07 -3.51684e-07
-1.19913e-07 1.13172e-08 -1.58911e-09
-5.33337e-07 7.37414e-07 -8.6479e-07
4.61886e-07 9.26737e-07 -1.16239e-06
-9.6541e-07 7.1536e-07 -8.02589e-07
9.94519e-07 3.62145e-07 -5.41982e-07
1.00549e-07 1.05889e-07 -7.77944e-08
9.93908e-07 9.46258e-07 -1.10764e-06
-3.03481e-08 9.27097e-08 -1.54433e-07
-6.48056e-07 3.25373e-07 -5.05376e-07
-1.69302e-06 9.79446e-07 -1.38072e-06
-2.31704e-07 3.15924e-07 -3.72991e-07
2.84297e-07 1.1779e-06 -1.45443e-06
-7.86663e-07 2.95302e-07 -3.09e-07
9.72507e-07 8.80576e-07 -8.124e-07
-3.73944e-07 1.01639e-07 -7.06348e-08
-0.000786887 -0.000178895 0.000272657
3.95409e-07 1.65182e-07 -3.24906e-07
8.12354e-07 3.87331e-07 -3.17632e-07
-3.53891e-07 2.73003e-07 -3.62659e-07
-4.67474e-07 2.21384e-07 -1.82723e-07
4.79623e-07 2.82209e-07 -1.58942e-07
2.03938e-07 2.40646e-07 -3.81356e-07
0.000801988 -0.000833498 8.01414e-06
-0.000307837 -6.1038e-05 0.000204794
-7.37895e-07 1.69441e-07 -3.8662e-07
-9.58969e-07 5.62062e-07 -7.9019e-07
1.88675e-07 2.7792e-07 -2.38152e-07
-1.69238e-07 8.87116e-07 -1.12043e-06
-3.14028e-07 2.39401e-07 -3.44188e-07
8.48282e-07 3.27402e-07 -5.99826e-07
-9.62875e-07 1.03512e-06 -1.30046e-06
0.00043772 -1.38736e-05 0.000335863
-1.44949e-06 7.05578e-07 -9.82419e-07
-2.0652e-08 7.7332e-08 -6.76415e-08
0.000626335 -0.000568273 -4.77912e-06
7.66299e-08 1.25127e-07 -1.76848e-07
0.00111716 -0.000218676 -0.000243018
-1.25971e-06 9.48146e-07 -1.23897e-06
-8.18274e-07 5.68248e-07 -7.5471e-07
6.36837e-05 -0.000356575 7.12897e-05
-4.47768e-07 2.94983e-07 -3.96048e-07
-0.000249301 -0.000291466 -0.000242762
1.44252e-07 3.52984e-07 -3.61082e-07
-1.74563e-07 3.09821e-07 -3.75124e-07
-8.78129e-07 1.52566e-07 -3.3124e-07
3.32441e-07 1.07197e-06 -1.25919e-06
-3.61875e-08 1.50131e-07 -1.43712e-07
-0.000761224 -0.000792026 -0.000106956
3.34149e-07 3.2234e-07 -3.61923e-07
3.6387e-07 1.21961e-07 -1.23134e-07
3.4712e-07 3.49077e-07 -3.59629e-07
-0.000654303 -0.000613772 -2.69507e-05
-1.33845e-06 6.52607e-07 -8.12977e-07
-1.27635e-06 8.24206e-07 -1.04861e-06
2.54216e-07 3.60066e-07 -3.70851e-07
-3.37836e-07 3.0786e-07 -3.96817e-07
-4.26777e-08 2.26938e-08 -8.60411e-09
0.00016339 0.000778965 -0.000364381
-0.000168756 0.000142955 0.000141424
-1.59048e-05 -0.000251779 0.00011493
-1.36505e-06 6.17656e-07 -8.33014e-07
-3.40856e-07 2.70585e-07 -3.23859e-07
-5.75348e-07 2.02572e-07 -1.59405e-07
2.27649e-07 3.16752e-07 -4.33096e-07
4.75432e-05 -0.000213425 0.000129013
9.47942e-05 0.000581544 0.000174869
1.0549e-07 2.30442e-08 -7.44964e-09
1.45387e-07 1.62954e-08 -1.51604e-08
-7.26018e-08 6.59447e-07 -8.46937e-07
6.25892e-08 1.65076e-08 -1.79976e-08
9.03017e-07 0.000507253 -0.000186986
5.47218e-08 7.79048e-07 -1.02129e-06