# vtk DataFile Version 4.2
vtk output
ASCII
DATASET UNSTRUCTURED_GRID

POINTS 343 double
0.00112255 0.00419472 1.49732e-07
0.00217123 0.00498187 0.0021757
0 0.00419538 0.00112517
0.0019285 0.00195387 0.00194245
0.00516244 0.00240184 0.00503465
0.00516625 0.00382555 0.00640004
0.00761936 0.00476562 0.00500453
0.00622366 0.00484385 0.0036955
0.00682728 0.00328033 0.00691856
0.00498894 0.00498849 0.00500203
0.00416896 0.0011142 0.0100013
0.00527014 0.00207479 0.00790697
0.00417842 -1.15127e-05 0.00831908
0.00200896 0.00200196 0.00803365
0.00427659 0.00252937 0.0100015
0.00695467 0.00643881 0.00695156
0.00641371 0.00617559 0.00518688
0.00225781 0.00218386 0.0051465
0 0.00143586 0.00417514
0.00159348 0.0034659 0.00403713
0.00683314 0.00318553 0.00316613
0.00773598 0.00220218 0.00506979
0 0.00270918 0.00154168
0.00415573 0.0014245 2.23124e-06
0.00500359 0.00218271 0.00220104
0.00396182 0.00352398 0.00160515
0.00134294 -7.91976e-07 0.00406021
0.00417702 -1.17525e-05 0.00169055
0.00262954 0.00695066 9.42642e-07
0.00193994 0.00805236 0.00194524
0.00409052 0.00624572 0.00164718
0.00800326 0.00797514 0.00800341
0.00795718 0.00480492 0.00802841
0.00838693 0.00606781 0.00595455
0.0100075 0.00880916 0.00420078
0.00758094 0.00762585 0.00496902
0.00857824 0.00996723 0.00417321
0.00798589 0.00796018 0.00202225
0.00353115 0.00303442 0.00696064
0.00443058 0.00365868 0.00832624
0.0038852 0.0015974 0.00597029
0.00500553 0.00766396 0.00767924
0.00198934 0.00800734 0.00798988
0.0028303 0.00999586 0.00712765
0.00391904 0.00839677 0.00595903
0 0.00695361 0.00262895
0.00164652 0.00623884 0.0040881
0 0.0040177 0.00850214
0.00231338 0.00498505 0.00766192
0.00143156 0.00417416 0.0100001
0.0071709 0.00710935 0.010003
0.00611386 0.00596453 0.00842121
0.00205253 0.00794101 0.00474211
0.00304348 0.00694173 0.00646838
0.00158637 0.00607803 0.00592621
0.00998345 0.00576758 0.00832354
0 0.00718191 0.00711644
0.00158556 0.00577302 2.32793e-07
0 0.00577432 0.00158701
0.00999357 0.00714127 0.00712298
0.002862 0.00334789 0.0100007
0.00995965 0.00139211 0.0041831
0.00803057 0.00193109 0.00198542
0.00838442 0.00348988 0.00400491
0.00372007 0.00164507 0.00412951
0.00151058 0.00999957 0.00581512
0.00280216 -5.43723e-06 0.00712843
0.00610165 0.00416509 0.00837969
0.00999729 0.00723324 0.00420314
0.00851468 -3.53512e-05 0.00417438
0.0033418 0.0028677 1.43104e-06
0.00269322 0.00153729 0.0100007
0.00281268 -5.87711e-06 0.00283273
0.0047936 0.00519049 0.00755654
0.0031559 0.00314471 0.00316818
0 0.00849157 0.00581511
0.00486166 0.00366544 0.00378844
0.00153665 0.00270843 1.80403e-07
0.00579839 0.00830985 0.0100018
0.00598875 0.00998272 0.0085087
0.00421669 0.00999066 0.00831922
0.00401691 0.00849512 0.0100007
0.0100034 0.00845058 0.00582185
0.00314865 0.00683224 0.00315173
0 0.00748929 0.00137438
0.0013748 0.00748893 7.61462e-08
0 0.00287343 0.00335182
0 0.00580816 0.00831736
0 0.00429792 0.00253898
0.00253495 0.00429489 9.03439e-07
0.00143251 0.00581896 0.0100001
0.00517457 0.00646426 0.00640247
0.00360115 0.00650772 0.00823514
0.00691832 0.00260418 0.0100031
0.00798498 0.00192815 0.0080401
0.006931 -2.59612e-05 0.00308672
0.00599332 0.00164534 0.00361631
0.00996968 0.00283088 0.00336005
0 0.00140616 0.00256446
0.00637601 0.00820956 0.0064239
0.00579287 0.00141631 4.26645e-06
0.00602063 0.00353434 0.00160732
0.00316077 0.00999447 0.00582599
0.00857101 0.00996744 0.00583832
0.00255252 0.00140136 9.96383e-07
0.00594166 -2.04555e-05 0.00149877
0.00628677 0.0082697 0.00362064
0.00850769 -3.51025e-05 0.00583905
0.00617564 0.00165316 0.00636826
0.00139994 0.00256392 0.0100001
0.00712047 0.007159 5.32305e-06
0.00517124 0.00767757 0.00217165
0.00594054 0.00607799 0.00160572
0 0.00686719 0.00578184
0.00996116 0.00136216 0.00257305
0.00177053 0.00360949 0.00640814
0.0100069 0.00844546 0.00263163
0.00840495 0.00615863 0.00413848
0.00599536 0.00998174 0.00149745
0.00692581 -2.57099e-05 0.00693007
0.0099579 0.00139197 0.00582694
0.00837147 0.00354192 0.00606625
0.00149903 -1.08153e-06 0.00581535
0 0.0013659 0.00748679
0.00136091 -9.71266e-07 0.00752897
0.00999292 0.00682649 0.00578869
0.00582616 0.00847505 3.86227e-06
0 0.0075208 0.00859127
0.00136427 0.0074862 0.01
0.00423519 0.00819711 0.0036296
0.00860208 0.0099672 0.00751695
0.0100026 0.00858945 0.00753261
0.00574063 0.00156898 0.0100022
0.00723462 0.00416461 0.0100033
0 0.0057735 0.00666667
0.00137101 0.0099995 0.00752904
0 0.00863025 0.00752641
0.00854307 -3.59732e-05 0.00251443
0.00999691 0.00691252 0.00263696
0.00845527 0.00631091 0.00216922
0.00849247 0.00579307 0.0100043
0.00744836 0.0013464 0.0100035
0.00853864 -3.55472e-05 0.00751698
0.00995567 0.00132242 0.00749337
0 0.00143551 0.00581971
0.00593587 -2.00031e-05 0.00850836
0.00418497 -1.19335e-05 0.00340176
0.00792094 0.00467941 0.00204034
0.00997969 0.00425616 0.00254724
0.0042361 0.00999027 0.00666761
0.00284155 0.00999585 0.00283255
0.00130505 -8.52888e-07 0.00241846
0 0.00727418 0.00419576
0.0099848 0.00573283 0.00667328
0.00698901 0.00997641 0.00308562
0.0075079 0.00861154 0.0100033
0 0.00574334 0.00336387
0 0.0043297 0.00416652
0.00685515 0.0057637 0.010003
0.00996675 0.00298018 0.00692199
0.00419531 -1.17627e-05 0.00666799
0.00248206 0.0099965 0.00861197
0.00745504 0.00133718 6.22051e-06
0.00576595 0.00665213 0.010002
0.00999431 0.0074803 0.00859716
0.00860215 0.00752216 0.0100043
0.00689422 0.00299871 5.63084e-06
0.00336206 0.00573896 1.67411e-06
0.0075388 0.00860415 5.72439e-06
0.00753339 0.00997283 0.00139258
0.00578434 0.00685187 3.9185e-06
0.00697151 0.0063493 0.0030377
0.00747325 -2.97292e-05 0.00139383
0.00287649 0.00499596 0.0100007
0.00432025 0.00582594 0.0100012
0.0043141 0.00415857 0.0100014
0.007526 0.00997363 0.00861969
0.00245794 -4.71431e-06 0.00861213
0.00998811 0.00570223 0.00337175
0 0.00302218 0.00691532
0.00997149 0.00397659 0.00850835
0.00848468 0.00398501 7.35435e-06
0.0099706 0.00266611 0.00155043
0 0.00244495 0.00857025
0.00244514 0.00856694 0.0100002
0.00746627 -2.92648e-05 0.00861933
0.00845028 0.00259132 0.0100043
0.00882354 0.00416021 0.0100046
0.00568174 0.00998373 0.00583536
0.00518736 0.00757126 0.00503425
0.00565559 0.00998365 0.00421752
0.00698366 0.0099769 0.00692964
0.00301812 0.00691235 0.0100005
0.00415911 0.00432187 2.63927e-06
0.00281531 -6.17932e-06 0.00440551
0.00313004 -6.91716e-06 0.00582642
0.00998058 0.00415326 0.00113392
0.00364301 0.00833075 0.00158993
0.00997815 0.00428817 0.0041743
0.00666237 0.00575331 5.1326e-06
0.00860688 0.00996671 0.00251307
0 0.00848692 0.00262374
0.00135323 0.00999949 0.00405996
0 0.00885053 0.00419359
0.00420334 0.00884087 2.41765e-06
0.00421741 0.00998991 0.00168963
0.00499006 0.00478053 0.00238153
0.00720699 0.00449747 5.87012e-06
0.0056055 -1.88219e-05 0.00421857
0.00563168 -1.87821e-05 0.00583588
0.00131513 0.0099995 0.00241809
0.00854272 0.00241076 7.51319e-06
0.0099761 0.00448069 0.00722608
0.00712921 0.00997589 0.00500384
0.00571912 0.00334843 0.0100022
0.00244151 -4.64485e-06 0.00135746
0.00996132 0.00240238 0.00857657
0.00239068 0.00478898 0.00500043
0.00582176 0.00431396 4.49789e-06
0.00831168 0.00577752 6.92031e-06
0.00548947 0.00998496 0.00722247
0.00997628 0.00428882 0.00584042
0.00541699 0.00998466 0.00277798
0.00707056 -2.65197e-05 0.00500477
0.00284325 0.00999588 0.00440486
0 0.00452174 0.00721958
0.00451711 0.0072113 0.0100011
0.00544032 -1.75695e-05 0.00722227
0.0035973 0.00506859 0.00359756
0.00426231 0.00999011 0.00500931
0.00422039 -1.19786e-05 0.00501007
0.00366417 0.00521158 0.00617555
0 0.005744 0.00499998
0 0.00433013 0.00583333
0.00499704 0.00573336 3.51995e-06
0.00498203 0.00632846 0.00355595
0.00536768 -1.77061e-05 0.00277928
0.00998635 0.00570316 0.00500724
0.00368795 0.00640253 0.00484481
0.00572814 0.00498604 0.0100022
0.00999029 0.00573292 0.00159547
0 0.00666667 0
0.00859633 0.00748856 6.94976e-06
0.0033124 -9.20148e-06 2.54814e-06
0 0.01 0.00666667
0.00500756 0.00998671 0.0100018
0 0.00288419 0.00499914
0.0100018 0.00744803 0.00138277
0.00999794 0.00662523 8.73966e-06
0 0.005 0.01
0.00498247 0.00287113 3.33537e-06
0 0.005 0
0.00995141 -4.4777e-05 0.00334183
0.0100124 0.00995807 0.00667294
0.00419918 0.00726617 2.48967e-06
0.00996781 0.00284199 0.00500669
0.00497037 -1.65996e-05 4.03962e-06
0 0 0.00666667
0.00378685 0.00361044 0.00522736
0.0049634 -1.589e-05 0.0100013
0.0099479 -4.43926e-05 0.00667351
0 0 0.005
0.00879945 0.00996528 0.00122675
0.0100104 0.00873805 0.00122834
0.00994961 -4.44852e-05 0.0050077
0.00998706 0.00495807 8.98272e-06
0.00121471 0.00121882 5.7599e-08
0 0.00122008 0.00122008
0 0.00333333 0.01
0 0.00666667 0.01
0.00879293 0.00874583 6.96828e-06
0.010016 0.00995764 0.00334064
0.00422662 0.00999002 0.00340083
0.00998727 0.00662636 0.0100058
0 0.00333333 0
0 0.00122008 0.00877992
0.00121224 -1.24927e-06 0.00877974
0.00121381 0.00121924 0.0100003
0.00879117 0.0099659 0.00878485
0.00121959 0.00877917 0.00999998
0 0.00877992 0.00877992
0.0100024 0.00873893 0.00878586
0.00668648 0.00997761 4.32582e-06
0.00996131 0.00117565 0.00122913
0.00122138 0.00999922 0.00878044
0.00878237 0.00874661 0.0100045
0.00997634 0.00495921 0.0100059
0 0 0.00333333
0.0066294 -2.50805e-05 5.96539e-06
0.00873534 -3.75576e-05 0.00122815
0.00120433 -1.18059e-06 0.00121249
0 0.00877992 0.00122008
0.00122151 0.00877924 2.28659e-07
0.00121404 0.00999927 0.0012115
0.00995328 0.00117638 0.00878597
0.0087338 0.00118399 0.0100045
0.00662077 -2.4341e-05 0.0100023
0.00874424 0.00118321 7.90058e-06
0.0087275 -3.6938e-05 0.00878436
0.00997635 0.00329057 9.14971e-06
0.00333882 0.00999294 0.0100012
0.00246679 0.00999667 0.00135695
0.0066768 0.00997838 0.0100031
0.00996555 0.00329186 0.0100059
0 0.01 0.005
0.00262876 0.00848354 1.04029e-06
0.0100142 0.00995786 0.00500684
0 0.01 0.00333333
0 0.00166667 0
0.00995319 -4.51566e-05 0.00167585
0 0.00166667 0.01
0 0.00833333 0
0.0100089 0.00829153 8.4232e-06
0.00994617 -4.4582e-05 0.00833933
0.0100179 0.00995736 0.00167464
0.0100106 0.0099581 0.00833948
0.00166949 0.00999773 0.0100004
0 0.01 0.00833333
0.00835426 0.00996779 6.30993e-06
0.00829123 -3.51948e-05 7.65723e-06
0.00828117 -3.45401e-05 0.0100038
0.00834351 0.00996836 0.0100044
0 0 0.00833333
0.00999826 0.00829251 0.0100058
0.00165548 -3.08283e-06 6.9881e-07
0 0 0.00166667
0.0033458 0.00999336 1.50271e-06
0.00995486 0.00162313 0.0100058
0.00996552 0.00162238 9.26194e-06
0.0016544 -2.61985e-06 0.0100004
0.00167213 0.00999822 4.67606e-07
0 0.01 0.00166667
0.0100091 0.009958 0.010006
0 0 0.01
0.0100197 0.0099572 8.08368e-06
0.0099443 -4.46991e-05 0.0100054
0 0.01 0.01
0.00995485 -4.55461e-05 9.58284e-06
0 0.01 0
0 0 0
0.0050167 0.00998599 2.80424e-06
0.00330771 -8.20706e-06 0.0100005
0 0.00833333 0.01

CELLS 343 686
1 0
1 1
1 2
1 3
1 4
1 5
1 6
1 7
1 8
1 9
1 10
1 11
1 12
1 13
1 14
1 15
1 16
1 17
1 18
1 19
1 20
1 21
1 22
1 23
1 24
1 25
1 26
1 27
1 28
1 29
1 30
1 31
1 32
1 33
1 34
1 35
1 36
1 37
1 38
1 39
1 40
1 41
1 42
1 43
1 44
1 45
1 46
1 47
1 48
1 49
1 50
1 51
1 52
1 53
1 54
1 55
1 56
1 57
1 58
1 59
1 60
1 61
1 62
1 63
1 64
1 65
1 66
1 67
1 68
1 69
1 70
1 71
1 72
1 73
1 74
1 75
1 76
1 77
1 78
1 79
1 80
1 81
1 82
1 83
1 84
1 85
1 86
1 87
1 88
1 89
1 90
1 91
1 92
1 93
1 94
1 95
1 96
1 97
1 98
1 99
1 100
1 101
1 102
1 103
1 104
1 105
1 106
1 107
1 108
1 109
1 110
1 111
1 112
1 113
1 114
1 115
1 116
1 117
1 118
1 119
1 120
1 121
1 122
1 123
1 124
1 125
1 126
1 127
1 128
1 129
1 130
1 131
1 132
1 133
1 134
1 135
1 136
1 137
1 138
1 139
1 140
1 141
1 142
1 143
1 144
1 145
1 146
1 147
1 148
1 149
1 150
1 151
1 152
1 153
1 154
1 155
1 156
1 157
1 158
1 159
1 160
1 161
1 162
1 163
1 164
1 165
1 166
1 167
1 168
1 169
1 170
1 171
1 172
1 173
1 174
1 175
1 176
1 177
1 178
1 179
1 180
1 181
1 182
1 183
1 184
1 185
1 186
1 187
1 188
1 189
1 190
1 191
1 192
1 193
1 194
1 195
1 196
1 197
1 198
1 199
1 200
1 201
1 202
1 203
1 204
1 205
1 206
1 207
1 208
1 209
1 210
1 211
1 212
1 213
1 214
1 215
1 216
1 217
1 218
1 219
1 220
1 221
1 222
1 223
1 224
1 225
1 226
1 227
1 228
1 229
1 230
1 231
1 232
1 233
1 234
1 235
1 236
1 237
1 238
1 239
1 240
1 241
1 242
1 243
1 244
1 245
1 246
1 247
1 248
1 249
1 250
1 251
1 252
1 253
1 254
1 255
1 256
1 257
1 258
1 259
1 260
1 261
1 262
1 263
1 264
1 265
1 266
1 267
1 268
1 269
1 270
1 271
1 272
1 273
1 274
1 275
1 276
1 277
1 278
1 279
1 280
1 281
1 282
1 283
1 284
1 285
1 286
1 287
1 288
1 289
1 290
1 291
1 292
1 293
1 294
1 295
1 296
1 297
1 298
1 299
1 300
1 301
1 302
1 303
1 304
1 305
1 306
1 307
1 308
1 309
1 310
1 311
1 312
1 313
1 314
1 315
1 316
1 317
1 318
1 319
1 320
1 321
1 322
1 323
1 324
1 325
1 326
1 327
1 328
1 329
1 330
1 331
1 332
1 333
1 334
1 335
1 336
1 337
1 338
1 339
1 340
1 341
1 342

CELL_TYPES 343
1
1
1
1
1
1
1
1
1
1
1
1
1
1
1
1
1
1
1
1
1
1
1
1
1
1
1
1
1
1
1
1
1
1
1
1
1
1
1
1
1
1
1
1
1
1
1
1
1
1
1
1
1
1
1
1
1
1
1
1
1
1
1
1
1
1
1
1
1
1
1
1
1
1
1
1
1
1
1
1
1
1
1
1
1
1
1
1
1
1
1
1
1
1
1
1
1
1
1
1
1
1
1
1
1
1
1
1
1
1
1
1
1
1
1
1
1
1
1
1
1
1
1
1
1
1
1
1
1
1
1
1
1
1
1
1
1
1
1
1
1
1
1
1
1
1
1
1
1
1
1
1
1
1
1
1
1
1
1
1
1
1
1
1
1
1
1
1
1
1
1
1
1
1
1
1
1
1
1
1
1
1
1
1
1
1
1
1
1
1
1
1
1
1
1
1
1
1
1
1
1
1
1
1
1
1
1
1
1
1
1
1
1
1
1
1
1
1
1
1
1
1
1
1
1
1
1
1
1
1
1
1
1
1
1
1
1
1
1
1
1
1
1
1
1
1
1
1
1
1
1
1
1
1
1
1
1
1
1
1
1
1
1
1
1
1
1
1
1
1
1
1
1
1
1
1
1
1
1
1
1
1
1
1
1
1
1
1
1
1
1
1
1
1
1
1
1
1
1
1
1
1
1
1
1
1
1
1
1
1
1
1
1
1
1
1
1
1
1
1
1
1
1
1
1
1
1
1
1
1
1
1
1
1
1
1
1
1
1
1
1
1
1

POINT_DATA 343
FIELD FieldData 8

NodeID_(#) 1 343 int
0
1
2
3
4
5
6
7
8
9
10
11
12
13
14
15
16
17
18
19
20
21
22
23
24
25
26
27
28
29
30
31
32
33
34
35
36
37
38
39
40
41
42
43
44
45
46
47
48
49
50
51
52
53
54
55
56
57
58
59
60
61
62
63
64
65
66
67
68
69
70
71
72
73
74
75
76
77
78
79
80
81
82
83
84
85
86
87
88
89
90
91
92
93
94
95
96
97
98
99
100
101
102
103
104
105
106
107
108
109
110
111
112
113
114
115
116
117
118
119
120
121
122
123
124
125
126
127
128
129
130
131
132
133
134
135
136
137
138
139
140
141
142
143
144
145
146
147
148
149
150
151
152
153
154
155
156
157
158
159
160
161
162
163
164
165
166
167
168
169
170
171
172
173
174
175
176
177
178
179
180
181
182
183
184
185
186
187
188
189
190
191
192
193
194
195
196
197
198
199
200
201
202
203
204
205
206
207
208
209
210
211
212
213
214
215
216
217
218
219
220
221
222
223
224
225
226
227
228
229
230
231
232
233
234
235
236
237
238
239
240
241
242
243
244
245
246
247
248
249
250
251
252
253
254
255
256
257
258
259
260
261
262
263
264
265
266
267
268
269
270
271
272
273
274
275
276
277
278
279
280
281
282
283
284
285
286
287
288
289
290
291
292
293
294
295
296
297
298
299
300
301
302
303
304
305
306
307
308
309
310
311
312
313
314
315
316
317
318
319
320
321
322
323
324
325
326
327
328
329
330
331
332
333
334
335
336
337
338
339
340
341
342

Component_(#) 1 343 int
0
0
0
0
0
0
0
0
0
0
0
0
0
0
0
0
0
0
0
0
0
0
0
0
0
0
0
0
0
0
0
0
0
0
0
0
0
0
0
0
0
0
0
0
0
0
0
0
0
0
0
0
0
0
0
0
0
0
0
0
0
0
0
0
0
0
0
0
0
0
0
0
0
0
0
0
0
0
0
0
0
0
0
0
0
0
0
0
0
0
0
0
0
0
0
0
0
0
0
0
0
0
0
0
0
0
0
0
0
0
0
0
0
0
0
0
0
0
0
0
0
0
0
0
0
0
0
0
0
0
0
0
0
0
0
0
0
0
0
0
0
0
0
0
0
0
0
0
0
0
0
0
0
0
0
0
0
0
0
0
0
0
0
0
0
0
0
0
0
0
0
0
0
0
0
0
0
0
0
0
0
0
0
0
0
0
0
0
0
0
0
0
0
0
0
0
0
0
0
0
0
0
0
0
0
0
0
0
0
0
0
0
0
0
0
0
0
0
0
0
0
0
0
0
0
0
0
0
0
0
0
0
0
0
0
0
0
0
0
0
0
0
0
0
0
0
0
0
0
0
0
0
0
0
0
0
0
0
0
0
0
0
0
0
0
0
0
0
0
0
0
0
0
0
0
0
0
0
0
0
0
0
0
0
0
0
0
0
0
0
0
0
0
0
0
0
0
0
0
0
0
0
0
0
0
0
0
0
0
0
0
0
0
0
0
0
0
0
0
0
0
0
0
0
0
0
0
0
0
0
0
0
0
0
0
0
0
0
0
0
0
0
0

NodalMass_(kg) 1 343 double
3.15563e-06
1.41304e-05
2.20912e-06
1.71484e-05
8.42e-06
9.09306e-06
9.93033e-06
7.52198e-06
6.81096e-06
5.58223e-06
3.10888e-06
1.07575e-05
4.87011e-06
1.64955e-05
3.0246e-06
8.05984e-06
6.703e-06
1.0877e-05
4.18978e-06
8.16106e-06
6.14143e-06
1.17902e-05
2.23114e-06
4.25176e-06
1.09915e-05
7.41467e-06
4.21871e-06
3.92484e-06
3.08766e-06
1.31268e-05
7.72627e-06
1.65404e-05
1.19037e-05
7.29666e-06
3.81683e-06
1.11001e-05
3.81317e-06
1.39137e-05
6.37414e-06
8.00975e-06
7.6712e-06
1.18847e-05
1.6399e-05
2.78633e-06
8.93599e-06
2.58087e-06
7.57362e-06
4.23241e-06
1.31286e-05
3.80168e-06
2.7746e-06
7.16776e-06
1.21307e-05
5.11765e-06
8.19728e-06
4.58094e-06
2.79503e-06
3.26126e-06
4.12443e-06
2.11915e-06
3.35177e-06
3.61669e-06
1.56838e-05
7.33679e-06
8.24695e-06
5.00369e-06
2.82625e-06
7.20276e-06
3.26815e-06
4.18751e-06
2.02785e-06
2.42152e-06
3.11835e-06
5.97459e-06
5.87101e-06
4.09374e-06
5.45463e-06
2.28825e-06
4.49759e-06
4.38192e-06
4.50892e-06
4.39234e-06
4.27273e-06
5.32031e-06
1.53201e-06
2.38869e-06
2.02885e-06
4.38798e-06
3.17972e-06
3.14298e-06
4.61567e-06
5.87645e-06
8.18088e-06
2.48341e-06
1.53815e-05
3.49683e-06
7.35227e-06
2.01314e-06
2.0408e-06
7.98183e-06
4.41293e-06
7.1389e-06
1.20123e-06
5.03343e-06
1.61257e-06
4.12601e-06
8.73748e-06
4.37849e-06
7.97173e-06
2.13557e-06
3.38137e-06
9.48623e-06
7.40262e-06
1.80226e-06
2.10222e-06
7.98889e-06
1.87983e-06
7.44814e-06
4.19782e-06
2.37156e-06
4.31705e-06
6.06441e-06
4.30905e-06
2.16843e-06
1.8986e-06
1.81294e-06
3.89762e-06
2.44299e-06
1.65628e-06
8.01374e-06
1.64513e-06
2.3931e-06
3.01363e-06
2.99431e-06
1.36541e-06
1.87293e-06
2.09622e-06
1.94762e-06
1.87618e-06
6.37913e-06
4.58628e-06
2.02767e-06
1.61999e-06
2.41284e-06
3.8865e-06
4.44973e-06
2.29839e-06
1.17349e-05
3.11811e-06
1.354e-06
3.45063e-06
1.81846e-06
2.9382e-06
1.37381e-06
2.41464e-06
2.10451e-06
2.63927e-06
2.14166e-06
1.7943e-06
3.19976e-06
1.36989e-06
2.43489e-06
2.08158e-06
1.3601e-06
2.17203e-06
1.89924e-06
3.16996e-06
2.6119e-06
2.37677e-06
1.60225e-06
1.90684e-06
5.49206e-06
1.87878e-06
3.14313e-06
2.97301e-06
1.18454e-06
1.89263e-06
2.04166e-06
2.73572e-06
2.42405e-06
3.23083e-06
3.19752e-06
3.2142e-06
1.94492e-06
1.61196e-06
1.86876e-06
3.22435e-06
2.1114e-06
2.96917e-06
6.15288e-06
2.3097e-06
2.39729e-06
2.38029e-06
2.64508e-06
1.66557e-06
1.82377e-06
2.06583e-06
5.73271e-06
2.08467e-06
2.18324e-06
2.43522e-06
3.1188e-06
3.17316e-06
2.05447e-06
1.9592e-06
3.05718e-06
6.44327e-06
2.08796e-06
2.72615e-06
2.15709e-06
1.86812e-06
2.0028e-06
2.10999e-06
2.88994e-06
2.3222e-06
2.3979e-06
1.97629e-06
6.4127e-06
2.16225e-06
3.29198e-06
2.10223e-06
2.66566e-06
1.94415e-06
2.91865e-06
2.58116e-06
2.11703e-06
2.09534e-06
1.91719e-06
7.06046e-06
2.25203e-06
2.06378e-06
6.28159e-06
2.12147e-06
2.90924e-06
2.12921e-06
6.4487e-06
1.41701e-06
2.0682e-06
6.58062e-06
2.52584e-06
2.39732e-06
7.42191e-07
2.22368e-06
7.06751e-07
7.00657e-07
8.93749e-07
2.53536e-06
2.26535e-06
1.33607e-06
7.84725e-07
2.32303e-06
6.06694e-07
6.68276e-07
6.84307e-07
2.51242e-06
2.31629e-06
7.8367e-07
6.80839e-07
6.22692e-06
6.7471e-07
6.65305e-07
7.01158e-07
1.8232e-06
1.90695e-06
6.86722e-07
7.04792e-07
1.86445e-06
2.28572e-06
6.8045e-07
7.16005e-07
1.82373e-06
6.01079e-07
2.02791e-06
7.4579e-07
5.74423e-07
1.80052e-06
1.454e-06
2.2702e-06
1.80636e-06
2.15356e-06
1.79089e-06
1.79456e-06
6.8231e-07
2.24737e-06
1.45239e-06
1.79556e-06
6.97875e-07
6.24265e-07
6.62717e-07
1.44627e-06
1.40138e-06
2.15258e-06
1.82851e-06
1.3994e-06
1.43932e-06
2.19226e-06
6.97732e-07
1.77726e-06
1.79162e-06
6.54258e-07
7.3397e-07
2.34895e-06
7.10392e-07
6.56982e-07
6.26314e-07
2.18926e-06
6.12493e-07
6.03901e-07
5.92831e-07
5.12031e-07
5.11667e-07
4.9467e-07
4.97016e-07
4.96269e-07
5.33079e-07
4.94191e-07
4.97855e-07
4.86862e-07
4.90626e-07
4.94649e-07
4.94954e-07
4.91922e-07
4.89615e-07
4.96354e-07
4.95189e-07
4.82188e-07
1.10854e-06
5.3299e-07
5.44763e-07
5.36655e-07
5.15417e-07
5.01772e-07
5.53774e-07
5.53774e-07
5.53774e-07
5.53774e-07
5.53774e-07
5.53774e-07
5.50785e-07
5.50785e-07
7.45291e-07
7.11668e-07
4.9897e-07

NodalForce_(N) 3 343 double
-7.00465e-07 2.57327e-07 -4.67636e-08
-6.63739e-06 3.60435e-06 -1.64985e-06
0.00082535 0.000677552 0.00059295
4.74708e-06 4.02917e-06 -1.89157e-06
1.70843e-05 1.76441e-05 -7.42733e-06
1.31739e-05 1.65092e-05 -8.44013e-06
2.20096e-06 3.99268e-05 -2.01428e-05
-4.03031e-06 2.01366e-05 -9.82523e-06
1.71904e-05 2.32201e-05 -1.17526e-05
-2.48462e-07 9.00909e-06 -4.39588e-06
1.18824e-05 5.06811e-06 -2.58212e-06
3.6953e-05 2.4373e-05 -1.18761e-05
1.99367e-05 8.42135e-06 -3.5275e-06
1.54957e-05 3.15172e-06 -2.36707e-06
9.07776e-06 4.29414e-06 -2.67241e-06
-3.92389e-06 2.55582e-05 -1.39226e-05
-7.19769e-06 1.83015e-05 -9.16984e-06
7.35825e-06 3.2428e-06 -1.55081e-06
-0.0019984 0.00112105 -0.000482211
9.85834e-07 7.57287e-07 -2.10313e-07
4.89627e-06 2.15835e-05 -1.00769e-05
3.36915e-05 5.36803e-05 -2.53672e-05
-0.000886272 -0.00251359 -0.0012998
2.6502e-06 7.39247e-06 -2.98309e-06
1.20713e-05 2.37639e-05 -1.19125e-05
-2.16853e-06 8.33182e-06 -5.17796e-06
3.13576e-06 3.28726e-07 -3.1343e-07
8.433e-06 6.86031e-06 -3.2572e-06
-5.23729e-06 1.26004e-06 -7.38177e-07
-1.37967e-05 1.95576e-06 -1.31054e-06
-1.37754e-05 7.30983e-06 -5.28249e-06
-2.58554e-05 7.01622e-05 -3.85419e-05
2.13813e-05 5.12846e-05 -2.80413e-05
-4.89651e-06 3.45333e-05 -1.7902e-05
-1.75296e-05 2.48611e-05 -1.21894e-05
-3.12979e-05 4.31317e-05 -2.13249e-05
-2.20725e-05 1.91728e-05 -9.02499e-06
-6.63256e-05 6.0997e-05 -2.9961e-05
8.15942e-06 5.34955e-06 -2.61527e-06
1.50324e-05 1.02082e-05 -6.80678e-06
1.70938e-05 1.00236e-05 -3.63053e-06
-1.22816e-05 1.97416e-05 -1.12172e-05
-5.60708e-06 3.13752e-06 -9.74062e-07
-4.85737e-06 1.48698e-06 -3.59436e-07
-1.5811e-05 9.42142e-06 -3.58372e-06
0.00153627 0.00135241 -0.000555158
-2.63718e-06 1.2023e-06 -4.5342e-07
-0.000661838 0.00160724 -0.000171917
2.02297e-06 3.12936e-06 -1.77486e-06
1.40288e-06 3.95954e-07 -1.21752e-07
6.87346e-07 9.39079e-06 -5.54589e-06
4.05049e-06 1.73504e-05 -1.06628e-05
-8.41215e-06 1.83859e-06 -8.40858e-07
-2.73307e-06 2.22488e-06 -1.08434e-06
-9.94468e-07 9.41989e-07 -4.87633e-07
4.3835e-06 2.95843e-05 -1.57819e-05
0.00137589 0.0008292 0.00103885
-2.20727e-06 5.61214e-07 -1.55944e-07
-0.000102004 5.09629e-05 -0.000532243
-2.50291e-06 1.36049e-05 -7.18984e-06
5.26183e-06 1.78677e-06 -1.37031e-06
1.24754e-05 2.55782e-05 -1.22049e-05
2.47493e-05 7.78648e-05 -3.65718e-05
7.43828e-06 3.67963e-05 -1.80495e-05
1.42516e-05 1.02e-05 -3.63774e-06
-4.14737e-06 1.33399e-07 -4.66849e-08
7.24559e-06 2.21789e-06 -7.69773e-07
1.57062e-05 1.82281e-05 -1.07839e-05
-9.49504e-06 2.11705e-05 -1.05958e-05
2.03834e-05 2.36058e-05 -1.10012e-05
-9.60175e-07 1.6886e-06 -8.68318e-07
5.55746e-06 1.50726e-06 -9.39861e-07
6.06305e-06 2.63053e-06 -8.1422e-07
4.73933e-06 8.3374e-06 -5.31168e-06
2.12399e-06 3.69007e-06 -1.73582e-06
0.00243198 0.000951712 0.000396198
2.74355e-06 9.06323e-06 -4.41738e-06
-2.75244e-07 2.05797e-07 -8.67794e-08
-2.94151e-06 1.04467e-05 -6.11057e-06
-1.20957e-05 1.10362e-05 -6.33484e-06
-8.70879e-06 5.84532e-06 -3.16775e-06
-2.19561e-06 5.31009e-06 -2.82455e-06
-1.4095e-05 2.75346e-05 -1.40269e-05
-5.75255e-06 2.72759e-06 -1.49496e-06
0.000180236 -0.0015811 0.000693183
-1.94528e-06 6.03007e-08 -9.67751e-09
0.000138748 -0.00108384 0.000685257
-0.00174107 -0.000533943 4.58943e-05
-0.000527659 0.000518917 -0.000201533
-2.96797e-06 1.32939e-06 -7.40397e-07
9.85059e-07 2.97725e-07 -1.47366e-07
-3.83851e-06 9.91713e-06 -5.26004e-06
9.69425e-07 4.98579e-06 -4.02509e-06
1.14278e-05 8.97725e-06 -4.90795e-06
7.38186e-05 7.39137e-05 -3.66959e-05
1.33332e-05 1.4182e-05 -6.32314e-06
1.68074e-05 2.20252e-05 -9.71882e-06
2.91948e-06 1.38163e-05 -6.7466e-06
-7.47265e-05 0.000287969 0.000105535
-1.79333e-05 2.22864e-05 -1.07421e-05
4.57726e-06 1.32604e-05 -6.0083e-06
-9.61279e-07 1.97405e-05 -1.03282e-05
-2.54229e-06 9.27385e-07 -3.31088e-07
-2.44092e-05 2.5087e-05 -1.22625e-05
4.48137e-07 1.15253e-06 -4.43886e-07
1.19836e-05 1.30787e-05 -6.36374e-06
-3.16337e-05 2.43442e-05 -1.13428e-05
2.51827e-05 2.44554e-05 -1.14693e-05
2.85457e-05 2.45915e-05 -1.09405e-05
1.39317e-06 7.51668e-08 -8.52743e-08
-1.55617e-05 1.20509e-05 -6.23728e-06
-3.11111e-05 1.78702e-05 -9.05056e-06
-1.87056e-05 1.74298e-05 -9.95917e-06
-0.00139857 -0.000437945 -0.00139366
5.51682e-06 1.49709e-05 -7.08705e-06
2.59304e-06 1.12434e-06 -7.76527e-07
-9.51628e-06 1.23333e-05 -6.05087e-06
-1.31365e-05 3.58273e-05 -1.78567e-05
-2.4831e-05 1.15391e-05 -5.28981e-06
1.35986e-05 9.55327e-06 -4.16737e-06
1.88127e-05 3.03315e-05 -1.47002e-05
1.28779e-05 3.00701e-05 -1.52285e-05
3.76919e-06 5.40876e-07 -2.49443e-07
0.000180039 8.49667e-05 0.000358955
1.64733e-06 2.44594e-07 -3.35866e-08
-2.87405e-06 1.16762e-05 -5.99681e-06
-2.0237e-05 9.76401e-06 -4.98353e-06
-0.000107596 -0.00104878 -0.000842241
4.43326e-08 1.24706e-07 -6.90349e-08
-1.99226e-05 1.01309e-05 -3.76513e-06
-6.45804e-06 8.23638e-06 -4.23455e-06
-6.00236e-06 1.52631e-05 -8.0562e-06
1.49967e-05 8.30334e-06 -4.37293e-06
9.69279e-06 1.07753e-05 -6.31012e-06
0.00135343 -0.00154925 -8.41133e-05
-1.10279e-06 5.88274e-08 -4.66273e-08
3.58024e-05 0.000291224 -0.0001588
7.79029e-06 1.1203e-05 -5.20629e-06
-6.38418e-06 1.2225e-05 -6.08413e-06
-1.91363e-05 3.13586e-05 -1.54276e-05
8.09228e-06 2.19453e-05 -1.2316e-05
1.21891e-05 8.89865e-06 -4.54905e-06
1.08227e-05 9.18335e-06 -4.25292e-06
1.29393e-05 1.6938e-05 -8.34794e-06
-0.00158715 0.000513941 -2.85217e-05
2.60048e-05 1.37523e-05 -6.33874e-06
6.58267e-06 4.11691e-06 -1.53204e-06
-1.49853e-05 5.24819e-05 -2.57395e-05
-1.66431e-06 2.09941e-05 -1.02101e-05
-3.62742e-06 1.86428e-06 -6.96566e-07
-8.85682e-06 1.99541e-06 -6.2367e-07
1.05119e-06 1.55872e-07 -1.04787e-07
-0.000641427 -0.00112613 -8.59263e-07
1.61488e-07 8.92799e-06 -4.62038e-06
-1.38706e-05 8.64188e-06 -3.80909e-06
-2.4049e-06 8.12334e-06 -4.55864e-06
0.000668052 -0.00136052 0.000360485
-0.00197302 0.000300103 0.000861234
2.81573e-06 5.54422e-06 -3.46101e-06
1.04595e-05 2.16108e-05 -1.09316e-05
5.16494e-06 2.43062e-06 -8.31242e-07
-2.92829e-06 1.07183e-06 -4.95412e-07
2.54299e-06 9.52261e-06 -4.41476e-06
9.31356e-07 2.90957e-06 -1.90896e-06
-1.62052e-06 1.38451e-05 -7.38465e-06
-1.22969e-07 9.20975e-06 -5.15549e-06
-1.12579e-06 1.17311e-05 -5.89573e-06
-4.62472e-06 1.60373e-06 -1.21135e-06
-1.46314e-05 9.63115e-06 -4.82098e-06
-1.08642e-05 6.67325e-06 -3.10888e-06
-7.18754e-06 4.46585e-06 -2.47821e-06
-1.32549e-05 1.81852e-05 -9.20232e-06
6.00508e-06 8.84275e-06 -4.1225e-06
2.99323e-06 1.34814e-06 -1.28346e-06
3.64516e-06 3.07447e-06 -2.579e-06
2.4928e-06 1.36521e-06 -1.07244e-06
-5.87783e-06 7.49757e-06 -4.06279e-06
4.95569e-06 1.44708e-06 -4.65541e-07
-4.59332e-06 1.80688e-05 -8.92441e-06
0.000510715 -0.000803398 -0.000690896
9.85759e-06 2.12779e-05 -1.12335e-05
-4.97664e-06 1.67457e-05 -8.20795e-06
2.13177e-06 2.2393e-05 -1.06108e-05
0.000421062 -0.00115361 0.000695133
-3.54692e-07 7.48105e-07 -4.20141e-07
1.26499e-05 8.64516e-06 -3.9973e-06
1.68498e-05 1.65454e-05 -8.71554e-06
7.60622e-06 1.11979e-05 -6.07828e-06
-1.08048e-05 7.11436e-06 -2.93289e-06
-1.21509e-05 1.12336e-05 -5.02652e-06
-1.0123e-05 5.60673e-06 -2.20895e-06
-9.10311e-06 8.29406e-06 -3.90317e-06
8.72958e-07 8.28154e-07 -9.81761e-07
-3.54263e-06 3.06815e-06 -2.06122e-06
3.45813e-06 1.49138e-06 -4.93615e-07
4.79864e-06 1.83684e-06 -6.37151e-07
-2.39648e-06 1.40551e-05 -6.77193e-06
-1.53572e-05 5.74647e-06 -3.08097e-06
6.37116e-07 1.39079e-05 -6.96906e-06
-6.66963e-06 6.86325e-06 -3.70112e-06
-1.63113e-05 1.24983e-05 -5.8219e-06
0.000714427 -0.000833246 0.000155581
-2.39255e-06 1.74757e-07 -1.76635e-08
5.68957e-05 0.00072332 0.000399508
-7.92245e-06 2.80668e-06 -1.4492e-06
-1.31281e-05 4.56273e-06 -1.91843e-06
-5.55739e-06 1.03617e-05 -5.99641e-06
-3.96544e-06 7.98827e-06 -4.1008e-06
1.013e-05 7.89218e-06 -3.1596e-06
9.60467e-06 6.23209e-06 -2.39343e-06
-1.68682e-06 1.08904e-07 2.22925e-08
2.37512e-07 1.0992e-05 -5.2461e-06
3.78957e-06 1.38761e-05 -7.19989e-06
-1.40728e-05 1.05086e-05 -4.75711e-06
7.89089e-06 5.43787e-06 -3.34719e-06
3.31139e-06 1.55462e-06 -6.47469e-07
9.50212e-06 1.35599e-05 -6.94466e-06
-3.92209e-07 1.98242e-06 -1.12365e-06
-3.15038e-06 5.41269e-06 -3.08257e-06
-1.14497e-05 1.59565e-05 -8.07426e-06
-6.41289e-06 4.59954e-06 -2.22273e-06
3.32126e-06 1.76681e-05 -9.00403e-06
-9.50994e-06 4.43468e-06 -1.74239e-06
1.40457e-05 1.21064e-05 -5.37961e-06
-5.83848e-06 1.44116e-06 -3.70644e-07
-0.00114001 -0.000256964 0.000503908
5.31847e-07 2.59986e-06 -1.84773e-06
9.35288e-06 5.16082e-06 -2.05094e-06
-2.94022e-06 5.33693e-06 -2.57166e-06
-7.41857e-06 3.20677e-06 -1.07522e-06
6.94079e-06 3.73656e-06 -1.26318e-06
5.04805e-07 4.63294e-06 -2.49003e-06
0.00120268 -0.00113485 3.92301e-05
-0.000662145 -5.33626e-05 0.000240717
-5.29672e-06 3.36981e-06 -2.3006e-06
-1.02621e-05 1.01559e-05 -5.17597e-06
4.41005e-06 3.84866e-06 -1.67462e-06
-1.6047e-06 1.35485e-05 -6.86874e-06
-5.16563e-06 4.82231e-06 -2.23239e-06
5.12756e-06 5.2348e-06 -3.63006e-06
-6.37193e-06 1.59706e-05 -7.74765e-06
0.00076788 -1.86222e-05 0.000588731
-1.1877e-05 1.13284e-05 -5.62501e-06
9.07158e-07 9.87817e-07 -4.55643e-07
0.000866575 -0.000811848 -5.48033e-06
-1.39715e-06 1.69677e-06 -9.87724e-07
0.00169825 -0.000134693 -0.00037558
-1.05257e-05 1.4813e-05 -7.25404e-06
-5.93278e-06 8.88178e-06 -4.37019e-06
5.07817e-06 -0.000480916 0.00019611
-5.65915e-07 4.6533e-06 -2.42984e-06
-0.000283875 -0.000334121 -0.000274077
3.04961e-06 4.84569e-06 -2.27821e-06
-3.02425e-06 4.43348e-06 -2.24508e-06
-7.67303e-06 2.94892e-06 -1.90067e-06
5.49886e-06 1.57419e-05 -7.83998e-06
1.46072e-06 2.00667e-06 -9.20078e-07
-0.00100537 -0.000987694 -0.000159591
4.46718e-06 5.63169e-06 -2.55581e-06
3.67099e-06 1.61395e-06 -7.46032e-07
4.2418e-06 4.76379e-06 -2.27462e-06
-0.000882543 -0.000817712 -2.44098e-05
-1.34648e-05 9.78637e-06 -4.60964e-06
-1.1684e-05 1.26133e-05 -6.05303e-06
3.7564e-06 4.93208e-06 -2.3479e-06
-1.83159e-06 4.76083e-06 -2.3314e-06
2.26428e-07 3.36503e-07 -2.62843e-08
8.57266e-05 0.001133 -0.000634846
-0.000361952 0.000288612 0.000314634
-0.000174032 -0.000309181 0.000304099
-1.21901e-05 9.72687e-06 -4.70201e-06
-3.77108e-06 3.95105e-06 -1.89577e-06
-7.66618e-06 2.95963e-06 -9.00674e-07
7.33963e-07 4.74154e-06 -2.63259e-06
0.000158887 -0.000347326 0.000266756
6.13155e-05 0.000714006 0.000250145
1.24409e-06 2.56746e-07 -1.19393e-08
1.54013e-06 2.29078e-07 -1.24988e-07
-5.8752e-06 9.40653e-06 -5.08435e-06
-2.88731e-07 2.12083e-07 -5.20111e-08
7.86855e-06 0.000784526 -0.00032078
-3.6003e-06 1.14771e-05 -6.14062e-06
-4.78224e-06 2.31776e-06 -1.07934e-06