# vtk DataFile Version 4.2
vtk output
ASCII
DATASET UNSTRUCTURED_GRID

POINTS 343 double
0.00112271 0.0041949 9.60301e-08
0.00217142 0.00498245 0.00217541
0 0.00419538 0.00112517
0.00193018 0.00195439 0.0019422
0.00516908 0.00240623 0.00503268
0.00517176 0.00382949 0.006398
0.00762282 0.00477419 0.00499998
0.00622517 0.0048496 0.00369248
0.00683545 0.00328754 0.00691482
0.00499123 0.00499205 0.00500023
0.00417899 0.00111761 0.00999952
0.00527983 0.00207955 0.00790461
0.00418898 -7.99447e-06 0.00831753
0.00201212 0.00200242 0.00803331
0.00428499 0.00253243 0.00999958
0.00695662 0.00644579 0.00694778
0.00641422 0.00618158 0.00518377
0.00226051 0.00218454 0.00514618
0 0.00143586 0.00417514
0.00159465 0.00346612 0.00403705
0.00683748 0.00319286 0.00316237
0.00774489 0.0022116 0.00506502
0 0.00270918 0.00154168
0.00415874 0.001428 6.04022e-07
0.00500803 0.00218716 0.00219857
0.00396304 0.00352637 0.00160351
0.00134526 -6.2459e-07 0.00406005
0.00418324 -8.3084e-06 0.00168871
0.00262714 0.00695154 3.04134e-07
0.00193874 0.0080527 0.00194497
0.00408862 0.0062478 0.00164552
0.00800316 0.00798453 0.00799836
0.00796412 0.00481418 0.00802337
0.00838864 0.00607802 0.0059491
0.0100009 0.00882325 0.00419346
0.007578 0.00763437 0.00496463
0.00856906 0.00997825 0.00416768
0.0079787 0.00796966 0.00201709
0.0035357 0.00303628 0.00695972
0.00443673 0.00366151 0.00832441
0.00389183 0.00160012 0.00596925
0.00500571 0.00766772 0.00767714
0.00198972 0.00800782 0.00798969
0.002828 0.00999711 0.00712726
0.00391722 0.00839916 0.00595804
0 0.00695361 0.00262895
0.00164669 0.00623921 0.00408793
0 0.0040177 0.00850214
0.00231501 0.00498564 0.00766158
0.00143317 0.00417444 0.00999997
0.00717441 0.00711689 0.00999874
0.0061178 0.00596991 0.00841801
0.00205217 0.00794138 0.00474189
0.00304395 0.00694276 0.00646784
0.00158701 0.00607832 0.00592605
0.00998867 0.00578143 0.00831613
0 0.00718191 0.00711644
0.00158496 0.0057734 8.58986e-08
0 0.00577432 0.00158701
0.00999426 0.00715516 0.00711557
0.00286683 0.00334913 0.00999988
0.00996971 0.00140653 0.00417559
0.00803662 0.00194122 0.00198009
0.00838951 0.00350038 0.00399936
0.00372553 0.00164764 0.00412854
0.00150963 0.00999966 0.00581504
0.00280896 -3.84312e-06 0.00712783
0.00610898 0.00417059 0.00837649
0.00999422 0.00724721 0.00419578
0.00852766 -2.40659e-05 0.00416856
0.00334232 0.00286944 4.00822e-07
0.00269947 0.00153864 0.00999989
0.0028181 -4.21977e-06 0.00283217
0.00479761 0.00519362 0.0075546
0.00315831 0.00314609 0.00316752
0 0.00849157 0.00581511
0.00486497 0.00366899 0.00378659
0.00153727 0.00270864 6.6559e-08
0.00579957 0.00831512 0.00999894
0.00598547 0.00998841 0.00850552
0.00421454 0.00999363 0.00831762
0.00401776 0.0084979 0.00999925
0.00999956 0.00846458 0.00581452
0.00314797 0.0068334 0.00315104
0 0.00748929 0.00137438
0.00137378 0.00748899 3.21585e-08
0 0.00287343 0.00335182
0 0.00580816 0.00831736
0 0.00429792 0.00253898
0.00253419 0.0042958 3.0557e-07
0.00143379 0.00581915 0.00999998
0.00517564 0.00646804 0.00640045
0.00360324 0.00650917 0.00823404
0.00693084 0.00261178 0.009999
0.0079981 0.00193811 0.00803503
0.00694149 -1.78671e-05 0.00308267
0.00600057 0.00165148 0.00361333
0.00997556 0.00284506 0.00335249
0 0.00140616 0.00256446
0.00637402 0.00821576 0.00642087
0.00579715 0.00142234 1.12377e-06
0.00602273 0.00354011 0.00160395
0.00315782 0.00999623 0.00582527
0.0085639 0.00997843 0.00583278
0.00255431 0.0014028 3.35891e-07
0.00594991 -1.41883e-05 0.00149531
0.00628172 0.00827581 0.00361755
0.00852263 -2.38816e-05 0.00583335
0.00618582 0.00165954 0.00636528
0.00140214 0.00256405 0.01
0.00711328 0.00716664 8.38839e-07
0.00516653 0.00768169 0.00216931
0.00593763 0.00608309 0.0016025
0 0.00686719 0.00578184
0.00996935 0.00137662 0.00256545
0.00177224 0.00360984 0.0064079
0.0099992 0.00845958 0.00262412
0.00840428 0.00616896 0.00413302
0.00598517 0.00998771 0.00149428
0.00694053 -1.76004e-05 0.00692632
0.00996996 0.00140635 0.00581951
0.00837899 0.00355233 0.00606075
0.00150172 -8.06383e-07 0.00581522
0 0.0013659 0.00748679
0.00136352 -6.89105e-07 0.00752891
0.00999272 0.00684037 0.00578134
0.00581736 0.00848043 6.5112e-07
0 0.0075208 0.00859127
0.00136511 0.00748641 0.00999991
0.00423194 0.00819992 0.00362842
0.00859697 0.00997828 0.00751127
0.0100005 0.00860338 0.00752525
0.00575362 0.00157473 0.00999917
0.00724442 0.00417235 0.00999889
0 0.0057735 0.00666667
0.0013705 0.0099996 0.00752894
0 0.00863025 0.00752641
0.00855409 -2.45148e-05 0.00250844
0.00999268 0.00692648 0.00262945
0.00845187 0.00632143 0.00216354
0.00849945 0.00580346 0.00999861
0.00746389 0.00135548 0.0099988
0.00855558 -2.41349e-05 0.00751137
0.00996988 0.0013368 0.00748595
0 0.00143551 0.00581971
0.00595066 -1.37487e-05 0.00850537
0.00419281 -8.3772e-06 0.00340029
0.00792108 0.00468884 0.00203521
0.00998141 0.00427023 0.00253972
0.0042324 0.00999338 0.00666637
0.00283749 0.00999715 0.00283203
0.00130698 -6.77279e-07 0.00241834
0 0.00727418 0.00419576
0.00998819 0.00574669 0.00666592
0.00697953 0.00998424 0.00308179
0.00750853 0.00862016 0.00999868
0 0.00574334 0.00336387
0 0.0043297 0.00416652
0.00686138 0.00577051 0.00999898
0.00997667 0.00299422 0.00691461
0.00420519 -8.19084e-06 0.00666669
0.00248074 0.00999754 0.00861146
0.00746003 0.00134639 1.34567e-06
0.00577 0.00665694 0.009999
0.00999597 0.00749415 0.00858984
0.0086053 0.00753284 0.00999853
0.00689588 0.00300629 1.29624e-06
0.00335982 0.00574029 5.21572e-07
0.00752837 0.00861285 7.4834e-07
0.00752172 0.00998186 0.00138781
0.0057786 0.0068569 7.23457e-07
0.00696917 0.00635648 0.00303377
0.00748238 -2.03911e-05 0.00138888
0.00288003 0.004997 0.00999979
0.00432494 0.00582833 0.00999938
0.00432067 0.00416116 0.00999946
0.00752243 0.00998246 0.00861501
0.00246432 -3.26575e-06 0.00861164
0.00998754 0.00571621 0.0033643
0 0.00302218 0.00691532
0.00998106 0.00399044 0.00850092
0.00848404 0.00399585 1.3204e-06
0.00997469 0.00268044 0.00154285
0 0.00244495 0.00857025
0.00244592 0.00856804 0.00999964
0.00748329 -1.99168e-05 0.00861483
0.0084644 0.00260206 0.00999861
0.00883433 0.00417147 0.00999855
0.00567651 0.00998907 0.00583305
0.00518558 0.00757532 0.00503234
0.00564874 0.00998902 0.00421518
0.00697847 0.00998459 0.00692598
0.00302044 0.00691323 0.00999958
0.00415808 0.00432434 7.7663e-07
0.00282104 -4.37671e-06 0.00440487
0.00313711 -4.89326e-06 0.00582567
0.00998085 0.00416741 0.00112631
0.00363899 0.00833294 0.00158858
0.00998177 0.00430218 0.00416681
0.00665836 0.00575998 1.06241e-06
0.00859568 0.00997789 0.00250734
0 0.00848692 0.00262374
0.00135236 0.00999963 0.00405989
0 0.00885053 0.00419359
0.00419647 0.00884395 5.24035e-07
0.00421015 0.00999316 0.001688
0.00499047 0.00478401 0.00237934
0.00720551 0.00450546 1.2262e-06
0.0056156 -1.30334e-05 0.00421599
0.00564343 -1.29757e-05 0.00583348
0.00131392 0.00999965 0.00241807
0.00854555 0.00242194 1.42992e-06
0.009983 0.00449458 0.00721871
0.00712171 0.00998392 0.00499999
0.00572887 0.00335349 0.00999921
0.00244555 -3.39552e-06 0.00135686
0.00997447 0.0024166 0.0085691
0.00239186 0.00478971 0.00500001
0.0058209 0.00431919 1.12134e-06
0.00830704 0.00578777 1.08032e-06
0.00548542 0.00998988 0.00722006
0.00998196 0.00430277 0.00583299
0.00540892 0.00998966 0.00277571
0.00708329 -1.82068e-05 0.0050007
0.00283985 0.00999716 0.00440442
0 0.00452174 0.00721958
0.0045198 0.00721417 0.00999925
0.00545295 -1.21356e-05 0.00721999
0.00359827 0.00507028 0.00359669
0.00425732 0.0099933 0.0050081
0.00422938 -8.3689e-06 0.00500874
0.00366625 0.00521326 0.00617463
0 0.005744 0.00499998
0 0.00433013 0.00583333
0.00499382 0.00573675 9.05562e-07
0.00498096 0.00633193 0.00355404
0.00537633 -1.23046e-05 0.00277666
0.00998779 0.00571706 0.00499984
0.00368817 0.00640421 0.00484398
0.00573504 0.00499064 0.00999915
0.00998751 0.00574697 0.00158791
0 0.00666667 0
0.00858777 0.00749944 8.38489e-07
0.00331645 -6.49652e-06 1.13567e-06
0 0.01 0.00666667
0.00500645 0.00999103 0.00999938
0 0.00288419 0.00499914
0.00999485 0.00746204 0.00137519
0.00999127 0.0066393 9.72376e-07
0 0.005 0.01
0.00498394 0.00287523 8.81185e-07
0 0.005 0
0.00996355 -3.0358e-05 0.00333422
0.0100062 0.0099723 0.00666566
0.00419445 0.00726871 5.96626e-07
0.00997575 0.00285605 0.00499921
0.00497608 -1.16128e-05 1.43076e-06
0 0 0.00666667
0.00379033 0.00361244 0.00522642
0.00497702 -1.10638e-05 0.00999895
0.00996403 -3.00761e-05 0.00666614
0 0 0.005
0.00878668 0.0099769 0.00122059
0.0100003 0.00875224 0.00122075
0.00996375 -3.01625e-05 0.00500021
0.00998421 0.00497217 1.2028e-06
0.00121566 0.00121921 8.59984e-09
0 0.00122008 0.00122008
0 0.00333333 0.01
0 0.00666667 0.01
0.00878152 0.00875727 6.73758e-07
0.0100057 0.00997195 0.00333328
0.00422056 0.00999325 0.00339965
0.00999254 0.00664012 0.00999843
0 0.00333333 0
0 0.00122008 0.00877992
0.00121474 -8.77202e-07 0.0087797
0.00121596 0.00121949 0.0100001
0.00878752 0.00997745 0.00877876
0.00121999 0.00877942 0.0099999
0 0.00877992 0.00877992
0.0100014 0.00875295 0.00877848
0.00667401 0.00998494 3.45405e-07
0.00996836 0.0011902 0.00122149
0.00122107 0.00999943 0.00878014
0.00878279 0.008758 0.00999855
0.00998545 0.00497308 0.00999845
0 0 0.00333333
0.00663669 -1.7306e-05 1.73745e-06
0.0087449 -2.55639e-05 0.00122177
0.00120596 -8.9577e-07 0.00121214
0 0.00877992 0.00122008
0.00122027 0.0087794 1.19037e-07
0.00121261 0.00999948 0.00121144
0.00996939 0.0011908 0.00877856
0.00875111 0.00119579 0.00999847
0.00663797 -1.67627e-05 0.00999847
0.0087498 0.00119516 1.56763e-06
0.00874597 -2.50411e-05 0.00877848
0.00997724 0.00330483 1.38118e-06
0.0033381 0.00999523 0.0099999
0.00246259 0.00999772 0.00135644
0.00667475 0.0099856 0.00999915
0.00997841 0.00330577 0.00999844
0 0.01 0.005
0.00262488 0.00848452 3.2507e-07
0.0100059 0.00997214 0.00499954
0 0.01 0.00333333
0 0.00166667 0
0.00996335 -3.06242e-05 0.00166815
0 0.00166667 0.01
0 0.00833333 0
0.0099984 0.00830567 7.31703e-07
0.00996428 -3.01553e-05 0.00833198
0.0100056 0.00997174 0.0016671
0.0100064 0.00997233 0.00833202
0.00166901 0.00999842 0.00999999
0 0.01 0.00833333
0.00834036 0.00997851 4.96405e-07
0.00829922 -2.40586e-05 1.76793e-06
0.00830056 -2.35029e-05 0.00999829
0.00834132 0.00997905 0.00999874
0 0 0.00833333
0.0099997 0.0083065 0.00999838
0.00165788 -2.24774e-06 3.4054e-07
0 0 0.00166667
0.00333879 0.00999544 3.10931e-07
0.00997142 0.00163756 0.00999837
0.00997017 0.00163691 1.51313e-06
0.0016586 -1.85488e-06 0.0100001
0.00166916 0.00999874 1.37029e-07
0 0.01 0.00166667
0.0100067 0.00997233 0.00999848
0 0 0.01
0.0100055 0.00997157 4.51286e-07
0.00996448 -3.02583e-05 0.00999806
0 0.01 0.01
0.00996316 -3.08618e-05 1.78261e-06
0 0.01 0
0 0 0
0.00500669 0.00999053 3.529e-07
0.0033172 -5.82876e-06 0.00999934
0 0.00833333 0.01

CELLS 343 686
1 0
1 1
1 2
1 3
1 4
1 5
1 6
1 7
1 8
1 9
1 10
1 11
1 12
1 13
1 14
1 15
1 16
1 17
1 18
1 19
1 20
1 21
1 22
1 23
1 24
1 25
1 26
1 27
1 28
1 29
1 30
1 31
1 32
1 33
1 34
1 35
1 36
1 37
1 38
1 39
1 40
1 41
1 42
1 43
1 44
1 45
1 46
1 47
1 48
1 49
1 50
1 51
1 52
1 53
1 54
1 55
1 56
1 57
1 58
1 59
1 60
1 61
1 62
1 63
1 64
1 65
1 66
1 67
1 68
1 69
1 70
1 71
1 72
1 73
1 74
1 75
1 76
1 77
1 78
1 79
1 80
1 81
1 82
1 83
1 84
1 85
1 86
1 87
1 88
1 89
1 90
1 91
1 92
1 93
1 94
1 95
1 96
1 97
1 98
1 99
1 100
1 101
1 102
1 103
1 104
1 105
1 106
1 107
1 108
1 109
1 110
1 111
1 112
1 113
1 114
1 115
1 116
1 117
1 118
1 119
1 120
1 121
1 122
1 123
1 124
1 125
1 126
1 127
1 128
1 129
1 130
1 131
1 132
1 133
1 134
1 135
1 136
1 137
1 138
1 139
1 140
1 141
1 142
1 143
1 144
1 145
1 146
1 147
1 148
1 149
1 150
1 151
1 152
1 153
1 154
1 155
1 156
1 157
1 158
1 159
1 160
1 161
1 162
1 163
1 164
1 165
1 166
1 167
1 168
1 169
1 170
1 171
1 172
1 173
1 174
1 175
1 176
1 177
1 178
1 179
1 180
1 181
1 182
1 183
1 184
1 185
1 186
1 187
1 188
1 189
1 190
1 191
1 192
1 193
1 194
1 195
1 196
1 197
1 198
1 199
1 200
1 201
1 202
1 203
1 204
1 205
1 206
1 207
1 208
1 209
1 210
1 211
1 212
1 213
1 214
1 215
1 216
1 217
1 218
1 219
1 220
1 221
1 222
1 223
1 224
1 225
1 226
1 227
1 228
1 229
1 230
1 231
1 232
1 233
1 234
1 235
1 236
1 237
1 238
1 239
1 240
1 241
1 242
1 243
1 244
1 245
1 246
1 247
1 248
1 249
1 250
1 251
1 252
1 253
1 254
1 255
1 256
1 257
1 258
1 259
1 260
1 261
1 262
1 263
1 264
1 265
1 266
1 267
1 268
1 269
1 270
1 271
1 272
1 273
1 274
1 275
1 276
1 277
1 278
1 279
1 280
1 281
1 282
1 283
1 284
1 285
1 286
1 287
1 288
1 289
1 290
1 291
1 292
1 293
1 294
1 295
1 296
1 297
1 298
1 299
1 300
1 301
1 302
1 303
1 304
1 305
1 306
1 307
1 308
1 309
1 310
1 311
1 312
1 313
1 314
1 315
1 316
1 317
1 318
1 319
1 320
1 321
1 322
1 323
1 324
1 325
1 326
1 327
1 328
1 329
1 330
1 331
1 332
1 333
1 334
1 335
1 336
1 337
1 338
1 339
1 340
1 341
1 342

CELL_TYPES 343
1
1
1
1
1
1
1
1
1
1
1
1
1
1
1
1
1
1
1
1
1
1
1
1
1
1
1
1
1
1
1
1
1
1
1
1
1
1
1
1
1
1
1
1
1
1
1
1
1
1
1
1
1
1
1
1
1
1
1
1
1
1
1
1
1
1
1
1
1
1
1
1
1
1
1
1
1
1
1
1
1
1
1
1
1
1
1
1
1
1
1
1
1
1
1
1
1
1
1
1
1
1
1
1
1
1
1
1
1
1
1
1
1
1
1
1
1
1
1
1
1
1
1
1
1
1
1
1
1
1
1
1
1
1
1
1
1
1
1
1
1
1
1
1
1
1
1
1
1
1
1
1
1
1
1
1
1
1
1
1
1
1
1
1
1
1
1
1
1
1
1
1
1
1
1
1
1
1
1
1
1
1
1
1
1
1
1
1
1
1
1
1
1
1
1
1
1
1
1
1
1
1
1
1
1
1
1
1
1
1
1
1
1
1
1
1
1
1
1
1
1
1
1
1
1
1
1
1
1
1
1
1
1
1
1
1
1
1
1
1
1
1
1
1
1
1
1
1
1
1
1
1
1
1
1
1
1
1
1
1
1
1
1
1
1
1
1
1
1
1
1
1
1
1
1
1
1
1
1
1
1
1
1
1
1
1
1
1
1
1
1
1
1
1
1
1
1
1
1
1
1
1
1
1
1
1
1
1
1
1
1
1
1
1
1
1
1
1
1
1
1
1
1
1
1
1
1
1
1
1
1
1
1
1
1
1
1
1
1
1
1
1
1

POINT_DATA 343
FIELD FieldData 8

NodeID_(#) 1 343 int
0
1
2
3
4
5
6
7
8
9
10
11
12
13
14
15
16
17
18
19
20
21
22
23
24
25
26
27
28
29
30
31
32
33
34
35
36
37
38
39
40
41
42
43
44
45
46
47
48
49
50
51
52
53
54
55
56
57
58
59
60
61
62
63
64
65
66
67
68
69
70
71
72
73
74
75
76
77
78
79
80
81
82
83
84
85
86
87
88
89
90
91
92
93
94
95
96
97
98
99
100
101
102
103
104
105
106
107
108
109
110
111
112
113
114
115
116
117
118
119
120
121
122
123
124
125
126
127
128
129
130
131
132
133
134
135
136
137
138
139
140
141
142
143
144
145
146
147
148
149
150
151
152
153
154
155
156
157
158
159
160
161
162
163
164
165
166
167
168
169
170
171
172
173
174
175
176
177
178
179
180
181
182
183
184
185
186
187
188
189
190
191
192
193
194
195
196
197
198
199
200
201
202
203
204
205
206
207
208
209
210
211
212
213
214
215
216
217
218
219
220
221
222
223
224
225
226
227
228
229
230
231
232
233
234
235
236
237
238
239
240
241
242
243
244
245
246
247
248
249
250
251
252
253
254
255
256
257
258
259
260
261
262
263
264
265
266
267
268
269
270
271
272
273
274
275
276
277
278
279
280
281
282
283
284
285
286
287
288
289
290
291
292
293
294
295
296
297
298
299
300
301
302
303
304
305
306
307
308
309
310
311
312
313
314
315
316
317
318
319
320
321
322
323
324
325
326
327
328
329
330
331
332
333
334
335
336
337
338
339
340
341
342

Component_(#) 1 343 int
0
0
0
0
0
0
0
0
0
0
0
0
0
0
0
0
0
0
0
0
0
0
0
0
0
0
0
0
0
0
0
0
0
0
0
0
0
0
0
0
0
0
0
0
0
0
0
0
0
0
0
0
0
0
0
0
0
0
0
0
0
0
0
0
0
0
0
0
0
0
0
0
0
0
0
0
0
0
0
0
0
0
0
0
0
0
0
0
0
0
0
0
0
0
0
0
0
0
0
0
0
0
0
0
0
0
0
0
0
0
0
0
0
0
0
0
0
0
0
0
0
0
0
0
0
0
0
0
0
0
0
0
0
0
0
0
0
0
0
0
0
0
0
0
0
0
0
0
0
0
0
0
0
0
0
0
0
0
0
0
0
0
0
0
0
0
0
0
0
0
0
0
0
0
0
0
0
0
0
0
0
0
0
0
0
0
0
0
0
0
0
0
0
0
0
0
0
0
0
0
0
0
0
0
0
0
0
0
0
0
0
0
0
0
0
0
0
0
0
0
0
0
0
0
0
0
0
0
0
0
0
0
0
0
0
0
0
0
0
0
0
0
0
0
0
0
0
0
0
0
0
0
0
0
0
0
0
0
0
0
0
0
0
0
0
0
0
0
0
0
0
0
0
0
0
0
0
0
0
0
0
0
0
0
0
0
0
0
0
0
0
0
0
0
0
0
0
0
0
0
0
0
0
0
0
0
0
0
0
0
0
0
0
0
0
0
0
0
0
0
0
0
0
0
0
0
0
0
0
0
0
0
0
0
0
0
0
0
0
0
0
0
0

NodalMass_(kg) 1 343 double
3.15563e-06
1.41304e-05
2.20912e-06
1.71484e-05
8.42e-06
9.09306e-06
9.93033e-06
7.52198e-06
6.81096e-06
5.58223e-06
3.10888e-06
1.07575e-05
4.87011e-06
1.64955e-05
3.0246e-06
8.05984e-06
6.703e-06
1.0877e-05
4.18978e-06
8.16106e-06
6.14143e-06
1.17902e-05
2.23114e-06
4.25176e-06
1.09915e-05
7.41467e-06
4.21871e-06
3.92484e-06
3.08766e-06
1.31268e-05
7.72627e-06
1.65404e-05
1.19037e-05
7.29666e-06
3.81683e-06
1.11001e-05
3.81317e-06
1.39137e-05
6.37414e-06
8.00975e-06
7.6712e-06
1.18847e-05
1.6399e-05
2.78633e-06
8.93599e-06
2.58087e-06
7.57362e-06
4.23241e-06
1.31286e-05
3.80168e-06
2.7746e-06
7.16776e-06
1.21307e-05
5.11765e-06
8.19728e-06
4.58094e-06
2.79503e-06
3.26126e-06
4.12443e-06
2.11915e-06
3.35177e-06
3.61669e-06
1.56838e-05
7.33679e-06
8.24695e-06
5.00369e-06
2.82625e-06
7.20276e-06
3.26815e-06
4.18751e-06
2.02785e-06
2.42152e-06
3.11835e-06
5.97459e-06
5.87101e-06
4.09374e-06
5.45463e-06
2.28825e-06
4.49759e-06
4.38192e-06
4.50892e-06
4.39234e-06
4.27273e-06
5.32031e-06
1.53201e-06
2.38869e-06
2.02885e-06
4.38798e-06
3.17972e-06
3.14298e-06
4.61567e-06
5.87645e-06
8.18088e-06
2.48341e-06
1.53815e-05
3.49683e-06
7.35227e-06
2.01314e-06
2.0408e-06
7.98183e-06
4.41293e-06
7.1389e-06
1.20123e-06
5.03343e-06
1.61257e-06
4.12601e-06
8.73748e-06
4.37849e-06
7.97173e-06
2.13557e-06
3.38137e-06
9.48623e-06
7.40262e-06
1.80226e-06
2.10222e-06
7.98889e-06
1.87983e-06
7.44814e-06
4.19782e-06
2.37156e-06
4.31705e-06
6.06441e-06
4.30905e-06
2.16843e-06
1.8986e-06
1.81294e-06
3.89762e-06
2.44299e-06
1.65628e-06
8.01374e-06
1.64513e-06
2.3931e-06
3.01363e-06
2.99431e-06
1.36541e-06
1.87293e-06
2.09622e-06
1.94762e-06
1.87618e-06
6.37913e-06
4.58628e-06
2.02767e-06
1.61999e-06
2.41284e-06
3.8865e-06
4.44973e-06
2.29839e-06
1.17349e-05
3.11811e-06
1.354e-06
3.45063e-06
1.81846e-06
2.9382e-06
1.37381e-06
2.41464e-06
2.10451e-06
2.63927e-06
2.14166e-06
1.7943e-06
3.19976e-06
1.36989e-06
2.43489e-06
2.08158e-06
1.3601e-06
2.17203e-06
1.89924e-06
3.16996e-06
2.6119e-06
2.37677e-06
1.60225e-06
1.90684e-06
5.49206e-06
1.87878e-06
3.14313e-06
2.97301e-06
1.18454e-06
1.89263e-06
2.04166e-06
2.73572e-06
2.42405e-06
3.23083e-06
3.19752e-06
3.2142e-06
1.94492e-06
1.61196e-06
1.86876e-06
3.22435e-06
2.1114e-06
2.96917e-06
6.15288e-06
2.3097e-06
2.39729e-06
2.38029e-06
2.64508e-06
1.66557e-06
1.82377e-06
2.06583e-06
5.73271e-06
2.08467e-06
2.18324e-06
2.43522e-06
3.1188e-06
3.17316e-06
2.05447e-06
1.9592e-06
3.05718e-06
6.44327e-06
2.08796e-06
2.72615e-06
2.15709e-06
1.86812e-06
2.0028e-06
2.10999e-06
2.88994e-06
2.3222e-06
2.3979e-06
1.97629e-06
6.4127e-06
2.16225e-06
3.29198e-06
2.10223e-06
2.66566e-06
1.94415e-06
2.91865e-06
2.58116e-06
2.11703e-06
2.09534e-06
1.91719e-06
7.06046e-06
2.25203e-06
2.06378e-06
6.28159e-06
2.12147e-06
2.90924e-06
2.12921e-06
6.4487e-06
1.41701e-06
2.0682e-06
6.58062e-06
2.52584e-06
2.39732e-06
7.42191e-07
2.22368e-06
7.06751e-07
7.00657e-07
8.93749e-07
2.53536e-06
2.26535e-06
1.33607e-06
7.84725e-07
2.32303e-06
6.06694e-07
6.68276e-07
6.84307e-07
2.51242e-06
2.31629e-06
7.8367e-07
6.80839e-07
6.22692e-06
6.7471e-07
6.65305e-07
7.01158e-07
1.8232e-06
1.90695e-06
6.86722e-07
7.04792e-07
1.86445e-06
2.28572e-06
6.8045e-07
7.16005e-07
1.82373e-06
6.01079e-07
2.02791e-06
7.4579e-07
5.74423e-07
1.80052e-06
1.454e-06
2.2702e-06
1.80636e-06
2.15356e-06
1.79089e-06
1.79456e-06
6.8231e-07
2.24737e-06
1.45239e-06
1.79556e-06
6.97875e-07
6.24265e-07
6.62717e-07
1.44627e-06
1.40138e-06
2.15258e-06
1.82851e-06
1.3994e-06
1.43932e-06
2.19226e-06
6.97732e-07
1.77726e-06
1.79162e-06
6.54258e-07
7.3397e-07
2.34895e-06
7.10392e-07
6.56982e-07
6.26314e-07
2.18926e-06
6.12493e-07
6.03901e-07
5.92831e-07
5.12031e-07
5.11667e-07
4.9467e-07
4.97016e-07
4.96269e-07
5.33079e-07
4.94191e-07
4.97855e-07
4.86862e-07
4.90626e-07
4.94649e-07
4.94954e-07
4.91922e-07
4.89615e-07
4.96354e-07
4.95189e-07
4.82188e-07
1.10854e-06
5.3299e-07
5.44763e-07
5.36655e-07
5.15417e-07
5.01772e-07
5.53774e-07
5.53774e-07
5.53774e-07
5.53774e-07
5.53774e-07
5.53774e-07
5.50785e-07
5.50785e-07
7.45291e-07
7.11668e-07
4.9897e-07

NodalForce_(N) 3 343 double
-8.88486e-08 4.19684e-09 -5.05442e-09
-5.67982e-07 7.29438e-08 -1.43142e-07
0.000416987 0.000416846 0.000435598
-2.82379e-07 1.20191e-07 -1.3172e-07
6.03268e-07 5.82398e-07 -7.39101e-07
8.60031e-07 4.9997e-07 -8.79116e-07
6.44564e-08 1.25277e-06 -2.17317e-06
-4.8526e-07 5.95385e-07 -1.04243e-06
1.08867e-06 7.69602e-07 -1.2441e-06
1.58838e-08 2.52192e-07 -4.56061e-07
7.59213e-07 1.95763e-07 -2.78412e-07
2.22091e-06 8.66143e-07 -1.26918e-06
1.04942e-06 3.47067e-07 -3.87831e-07
8.02073e-07 1.09167e-07 -1.8219e-07
6.62683e-07 1.49514e-07 -2.87845e-07
4.88822e-07 7.7788e-07 -1.53037e-06
-1.85641e-07 5.35757e-07 -9.99349e-07
1.92502e-07 8.93559e-08 -1.44643e-07
-0.00132719 0.000727498 -0.000202264
-4.30049e-08 1.18393e-08 -3.20651e-08
-2.68648e-07 7.04658e-07 -1.06206e-06
1.1953e-06 1.8606e-06 -2.68776e-06
-0.000556664 -0.00170084 -0.000864819
-4.07516e-07 2.5844e-07 -3.25321e-07
-4.51055e-07 8.10102e-07 -1.15268e-06
-6.31469e-07 2.40179e-07 -5.17549e-07
7.4736e-08 1.25838e-08 -2.17682e-08
4.1487e-09 2.4677e-07 -3.00396e-07
-3.99827e-07 2.19199e-08 -8.82645e-08
-6.753e-07 1.76687e-08 -1.25488e-07
-1.00587e-06 1.53682e-07 -5.60991e-07
1.12346e-06 2.29163e-06 -4.31473e-06
2.21936e-06 1.65522e-06 -3.05248e-06
7.82917e-08 1.09198e-06 -1.97246e-06
-8.32167e-07 8.28153e-07 -1.39102e-06
-1.12819e-06 1.35076e-06 -2.38312e-06
-9.45061e-07 6.54912e-07 -1.05144e-06
-4.11922e-06 1.88287e-06 -3.4395e-06
4.58882e-07 1.55705e-07 -2.70767e-07
1.15498e-06 3.05325e-07 -7.26738e-07
7.16981e-07 3.55735e-07 -3.39498e-07
5.56535e-07 6.10628e-07 -1.27512e-06
3.04997e-07 1.00526e-07 -1.74587e-07
-6.87905e-08 5.02744e-08 -6.5925e-08
-3.04509e-07 2.81588e-07 -4.30919e-07
0.000978211 0.000800169 -0.000389838
-1.20172e-07 2.84699e-08 -4.71731e-08
-0.000249017 0.00105791 1.44634e-06
3.76543e-07 6.4684e-08 -2.01466e-07
1.4252e-07 9.07152e-09 -1.89126e-08
5.33122e-07 3.06482e-07 -6.32393e-07
9.82397e-07 5.30101e-07 -1.17999e-06
-2.24342e-07 1.52612e-08 -1.1649e-07
2.33744e-08 4.90785e-08 -1.36256e-07
3.36721e-08 1.87209e-08 -5.27799e-08
7.1787e-07 9.88705e-07 -1.74342e-06
0.000830965 0.000597092 0.000704369
-1.78735e-07 9.33337e-09 -2.25109e-08
-0.000102793 -1.22614e-05 -0.000352212
6.42464e-08 4.51471e-07 -7.99814e-07
4.55761e-07 5.48114e-08 -1.47688e-07
2.71134e-07 9.16985e-07 -1.31893e-06
-1.15202e-06 2.68606e-06 -3.87425e-06
-8.97091e-08 1.22011e-06 -1.94865e-06
3.71556e-07 3.49743e-07 -3.19839e-07
-8.13091e-08 1.0099e-08 -2.41071e-08
3.07069e-07 9.46148e-08 -6.78458e-08
1.37032e-06 5.76021e-07 -1.17571e-06
-5.15288e-07 6.90871e-07 -1.19022e-06
5.65895e-07 8.74099e-07 -1.15136e-06
-2.37312e-07 4.64751e-08 -9.7204e-08
3.7356e-07 5.98099e-08 -9.69994e-08
1.36357e-07 9.83856e-08 -7.29583e-08
5.88732e-07 2.33387e-07 -5.76257e-07
-7.06171e-08 1.01492e-07 -1.57576e-07
0.00149007 0.0005967 0.000329579
-7.67661e-08 2.69476e-07 -4.36707e-07
-8.67685e-08 5.07193e-09 -1.19702e-08
6.53383e-07 3.52766e-07 -7.22871e-07
1.14445e-07 3.86633e-07 -7.24632e-07
8.96265e-08 1.97543e-07 -3.77265e-07
4.58597e-07 1.82769e-07 -3.63856e-07
-4.2878e-07 9.1663e-07 -1.58071e-06
-2.86797e-07 4.82072e-08 -1.48941e-07
5.69804e-05 -0.00111602 0.000410549
-1.19537e-07 -3.63825e-09 -5.89113e-09
0.000106489 -0.00071897 0.000444979
-0.000865051 -0.000351976 6.32697e-05
-0.000303744 0.000284672 -0.000160147
-3.33645e-07 2.99619e-08 -8.27047e-08
1.81238e-07 5.25052e-09 -2.49999e-08
1.3974e-07 2.79114e-07 -5.79738e-07
6.04582e-07 1.24043e-07 -4.75296e-07
8.37616e-07 3.17813e-07 -5.32772e-07
4.50059e-06 2.64229e-06 -3.92852e-06
2.09013e-07 5.23542e-07 -6.36311e-07
2.27358e-07 7.66741e-07 -9.69217e-07
-6.82016e-08 4.76943e-07 -7.35884e-07
-4.73766e-05 0.000133128 1.58733e-05
-1.66258e-07 7.05793e-07 -1.21887e-06
-5.49711e-07 4.63653e-07 -6.44013e-07
-8.35276e-07 6.24232e-07 -1.08269e-06
-6.18762e-08 3.272e-08 -3.80575e-08
-7.12152e-07 8.73262e-07 -1.40248e-06
-1.07525e-07 3.88106e-08 -4.7769e-08
-5.09843e-08 4.79283e-07 -6.27197e-07
-1.48751e-06 7.45543e-07 -1.26458e-06
1.04098e-06 9.12492e-07 -1.20853e-06
1.39454e-06 8.74835e-07 -1.13794e-06
9.08582e-08 1.48503e-09 -1.02216e-08
-1.17683e-06 3.51035e-07 -7.30598e-07
-1.80878e-06 4.97337e-07 -1.01913e-06
-1.48608e-06 4.69947e-07 -1.10054e-06
-0.000795062 -0.000354844 -0.000837488
-4.99971e-08 5.34241e-07 -7.67496e-07
1.34674e-07 2.78661e-08 -6.72295e-08
-5.68921e-07 4.04527e-07 -6.95175e-07
-7.88818e-07 1.12253e-06 -1.97152e-06
-1.33637e-06 3.82153e-07 -6.43341e-07
6.55828e-07 3.65904e-07 -4.36204e-07
7.71528e-07 1.09645e-06 -1.58311e-06
7.06232e-07 1.00026e-06 -1.64092e-06
1.32731e-07 2.3758e-08 -1.97505e-08
0.000223438 0.000162886 0.000150857
7.30463e-08 1.30991e-08 -1.99831e-09
-7.41184e-08 3.82894e-07 -6.69454e-07
-1.33426e-06 2.82384e-07 -5.99989e-07
-0.000104778 -0.000758886 -0.000462522
5.7321e-08 6.85383e-09 -1.24149e-08
-8.57302e-07 2.84699e-07 -4.24037e-07
-6.29086e-08 2.89741e-07 -4.81293e-07
1.62402e-09 5.12111e-07 -9.08346e-07
1.00287e-06 3.03082e-07 -4.72713e-07
8.89207e-07 3.55554e-07 -6.92389e-07
0.000652356 -0.00114842 -0.000104825
-2.4983e-09 1.49345e-09 -6.1559e-09
4.83565e-05 8.35372e-05 -0.000210617
6.58984e-08 4.13364e-07 -5.42091e-07
-4.55439e-07 3.91406e-07 -6.88571e-07
-1.49322e-06 9.64998e-07 -1.73492e-06
1.19977e-06 7.25871e-07 -1.36815e-06
8.01891e-07 3.27761e-07 -4.91718e-07
5.51065e-07 3.47699e-07 -4.56269e-07
6.86864e-07 6.20671e-07 -8.98407e-07
-0.00108042 0.000307296 7.21358e-05
1.42742e-06 5.40701e-07 -6.78609e-07
1.51165e-07 1.54569e-07 -1.35467e-07
-2.01464e-06 1.66664e-06 -2.82165e-06
-4.40609e-07 7.02997e-07 -1.13371e-06
-6.04198e-08 6.35843e-08 -8.68371e-08
-3.52629e-07 7.17702e-08 -8.0092e-08
9.4722e-09 4.15723e-09 -3.28822e-09
-0.000314583 -0.0007538 -6.50085e-05
8.13871e-08 2.9557e-07 -5.10212e-07
-6.59605e-07 2.92682e-07 -4.46182e-07
3.12909e-07 2.7951e-07 -5.25954e-07
0.000513305 -0.000882715 0.000263908
-0.00147434 0.000136075 0.000533933
4.21e-07 1.77333e-07 -3.8447e-07
5.91217e-07 7.47866e-07 -1.18699e-06
2.31602e-07 9.82206e-08 -8.19253e-08
3.18262e-08 3.46898e-08 -6.57576e-08
-3.08735e-07 3.338e-07 -4.80772e-07
2.51531e-07 9.06041e-08 -2.20632e-07
2.33742e-07 4.63912e-07 -8.28988e-07
3.76783e-07 3.09801e-07 -5.81538e-07
-6.1519e-07 3.81192e-07 -6.43399e-07
-4.10542e-07 2.83522e-08 -1.35402e-07
-9.79391e-07 2.95395e-07 -5.73166e-07
-6.11588e-07 2.22543e-07 -3.71935e-07
-5.55411e-07 1.20782e-07 -2.91518e-07
-8.85898e-07 5.3225e-07 -1.00813e-06
-5.12165e-08 3.25535e-07 -4.25231e-07
3.66558e-07 4.50747e-08 -1.46302e-07
5.101e-07 8.97333e-08 -2.97898e-07
2.29853e-07 4.27394e-08 -1.20468e-07
6.15539e-08 2.63596e-07 -4.62465e-07
2.51956e-07 6.5809e-08 -4.71759e-08
-4.04781e-07 5.91529e-07 -9.93721e-07
0.000311689 -0.000709717 -0.000590765
7.80445e-07 7.25249e-07 -1.22574e-06
-8.65608e-07 5.43918e-07 -9.20903e-07
-4.50547e-07 7.71076e-07 -1.16995e-06
0.00030307 -0.000837304 0.0004337
1.15799e-07 2.76018e-08 -5.75985e-08
7.07879e-07 3.35252e-07 -4.30453e-07
1.24058e-06 5.84456e-07 -9.49689e-07
6.92924e-07 3.79395e-07 -6.67291e-07
-2.60129e-07 2.46891e-07 -3.41491e-07
-3.54725e-07 3.2464e-07 -5.56335e-07
-3.88376e-07 1.92125e-07 -2.56601e-07
-1.34099e-07 2.87988e-07 -4.50498e-07
2.49013e-07 1.79835e-08 -1.23887e-07
-4.47202e-07 7.83434e-08 -2.2339e-07
1.08783e-07 5.93516e-08 -3.50749e-08
1.82288e-07 7.52977e-08 -4.97718e-08
-4.61844e-07 4.68122e-07 -7.59066e-07
-8.5419e-07 1.53778e-07 -3.42772e-07
-8.50402e-08 4.6573e-07 -7.63573e-07
-6.24265e-07 1.94361e-07 -4.21898e-07
-8.54983e-07 4.23383e-07 -6.858e-07
0.000350698 -0.000462555 0.000191575
-6.94275e-08 1.08347e-08 -1.18425e-08
-8.94095e-06 0.000491324 0.000171226
-4.96131e-07 7.97439e-08 -1.73697e-07
-6.58586e-07 1.56677e-07 -2.32521e-07
-6.54173e-07 2.75729e-07 -6.27398e-07
-5.32937e-07 2.46824e-07 -4.57428e-07
2.84994e-07 2.97469e-07 -2.98714e-07
4.02237e-07 2.39347e-07 -2.3987e-07
-6.74806e-08 6.55681e-09 -1.65356e-09
-4.22455e-07 3.72779e-07 -5.80608e-07
3.02435e-07 4.67244e-07 -7.88305e-07
-4.88498e-07 3.6111e-07 -5.49775e-07
6.37543e-07 1.8367e-07 -3.66469e-07
1.1177e-08 5.14668e-08 -5.05993e-08
6.09598e-07 4.83444e-07 -7.49209e-07
-2.02613e-08 4.09806e-08 -1.06376e-07
-4.54658e-07 1.60093e-07 -3.37566e-07
-1.1072e-06 4.81051e-07 -9.28952e-07
-6.21818e-08 1.59655e-07 -2.55574e-07
1.73664e-07 5.93588e-07 -9.85695e-07
-4.45184e-07 1.48598e-07 -2.1212e-07
4.94205e-07 4.52848e-07 -5.49961e-07
-1.93214e-07 5.17781e-08 -5.00951e-08
-0.000775384 -0.000174112 0.000261242
3.02478e-07 8.25109e-08 -2.211e-07
4.60819e-07 2.01084e-07 -2.17559e-07
-2.39627e-07 1.26783e-07 -2.4963e-07
-2.34138e-07 1.12241e-07 -1.27142e-07
2.42725e-07 1.46305e-07 -1.0728e-07
1.46491e-07 1.11882e-07 -2.63697e-07
0.000785615 -0.000826411 6.87239e-06
-0.000288562 -5.93716e-05 0.000204755
-4.85551e-07 7.76994e-08 -2.5793e-07
-5.78008e-07 2.69284e-07 -5.38427e-07
6.12943e-08 1.42182e-07 -1.59343e-07
-9.09938e-08 4.4479e-07 -7.59796e-07
-1.64953e-07 1.09218e-07 -2.39586e-07
5.75133e-07 1.63008e-07 -4.06393e-07
-6.21511e-07 5.17387e-07 -8.7916e-07
0.000419502 -1.24309e-05 0.000320496
-9.06e-07 3.48601e-07 -6.62453e-07
-3.52461e-08 4.06002e-08 -4.39759e-08
0.00061508 -0.000554749 -4.64159e-06
8.75303e-08 6.43831e-08 -1.19751e-07
0.00108692 -0.000228985 -0.000235828
-7.73357e-07 4.70842e-07 -8.37864e-07
-5.21161e-07 2.82837e-07 -5.08678e-07
6.95419e-05 -0.000351377 6.19784e-05
-3.47283e-07 1.47079e-07 -2.64685e-07
-0.000252616 -0.000293035 -0.000246533
5.64522e-08 1.81925e-07 -2.43574e-07
-7.31162e-08 1.57183e-07 -2.55177e-07
-5.54873e-07 7.08721e-08 -2.21359e-07
1.65938e-07 5.43432e-07 -8.52223e-07
-5.85991e-08 7.77282e-08 -9.49442e-08
-0.000747207 -0.000780475 -0.000102971
1.74735e-07 1.56281e-07 -2.49518e-07
2.1786e-07 6.3192e-08 -8.38399e-08
1.93512e-07 1.80171e-07 -2.43458e-07
-0.000640079 -0.00059888 -2.66296e-05
-7.86603e-07 3.27291e-07 -5.51346e-07
-7.65163e-07 4.1178e-07 -7.0984e-07
1.29481e-07 1.85617e-07 -2.50652e-07
-2.2664e-07 1.53633e-07 -2.67141e-07
-3.92555e-08 1.18358e-08 -6.08586e-09
0.000165978 0.000756786 -0.000346011
-0.000157357 0.000135806 0.000129515
-2.86544e-06 -0.000249762 0.000100837
-8.32547e-07 3.05894e-07 -5.62809e-07
-1.90567e-07 1.36509e-07 -2.2015e-07
-3.16265e-07 1.02955e-07 -1.10717e-07
1.70383e-07 1.59439e-07 -2.92855e-07
3.85827e-05 -0.00020508 0.000119016
8.95066e-05 0.000574288 0.00017116
6.11461e-08 1.26665e-08 -6.24564e-09
8.93326e-08 8.32359e-09 -9.68552e-09
6.51558e-08 3.3504e-07 -5.74699e-07
5.37156e-08 9.1811e-09 -1.28298e-08
3.45641e-06 0.000491148 -0.000179544
1.2691e-07 3.93256e-07 -6.93061e-07