# vtk DataFile Version 4.2
vtk output
ASCII
DATASET UNSTRUCTURED_GRID

POINTS 343 double
0.0011221 0.00419511 8.31156e-08
0.00216985 0.0049831 0.00217527
0 0.00419538 0.00112517
0.00193084 0.00195507 0.00194205
0.00517457 0.00241316 0.00503162
0.00517413 0.00383514 0.00639693
0.00762253 0.00478702 0.00499757
0.0062235 0.00485792 0.00369098
0.00684078 0.00329866 0.00691271
0.00498986 0.00499687 0.00499934
0.00418729 0.00112328 0.00999853
0.00528757 0.00208713 0.00790336
0.00419942 -1.7875e-06 0.00831685
0.00201357 0.00200299 0.0080331
0.00429043 0.00253708 0.00999847
0.00695186 0.00645551 0.00694572
0.00640935 0.00618985 0.00518224
0.00226171 0.00218543 0.00514607
0 0.00143586 0.00417514
0.00159455 0.00346637 0.00403711
0.00684099 0.00320434 0.00316041
0.0077534 0.00222685 0.0050624
0 0.00270918 0.00154168
0.00416295 0.00143388 -2.01226e-07
0.00501267 0.00219431 0.00219706
0.00396294 0.00352974 0.00160258
0.00134721 -2.94087e-07 0.00405997
0.00419149 -1.9653e-06 0.00168749
0.00262306 0.0069526 2.0914e-08
0.00193556 0.00805311 0.00194481
0.00408388 0.00625041 0.00164462
0.00799371 0.00799764 0.00799545
0.00796573 0.00482795 0.00802043
0.00838453 0.00609292 0.00594618
0.00998632 0.00884376 0.00418973
0.00756773 0.00764623 0.00496246
0.00855018 0.00999394 0.00416505
0.00796534 0.00798301 0.00201463
0.00353787 0.00303886 0.00695932
0.00443949 0.00366544 0.00832338
0.00389753 0.00160457 0.0059687
0.00499941 0.00767269 0.00767604
0.00198742 0.00800834 0.00798972
0.00282115 0.00999882 0.0071273
0.00391028 0.00840229 0.0059577
0 0.00695361 0.00262895
0.00164522 0.00623962 0.00408787
0 0.0040177 0.00850214
0.00231402 0.00498632 0.0076615
0.00143303 0.00417475 0.00999998
0.00716931 0.00712737 0.00999625
0.00611542 0.0059773 0.0084162
0.00204949 0.00794181 0.00474186
0.00304098 0.00694398 0.00646772
0.00158589 0.00607863 0.00592602
0.00998783 0.0058022 0.00831182
0 0.00718191 0.00711644
0.00158316 0.00577381 5.47289e-08
0 0.00577432 0.00158701
0.00998766 0.00717557 0.00711135
0.00286859 0.00335074 0.00999931
0.00998216 0.00143069 0.00417147
0.00804446 0.00195792 0.00197724
0.00839323 0.0035168 0.00399641
0.0037305 0.00165182 0.00412798
0.00150649 0.00999976 0.0058151
0.00281594 -9.49578e-07 0.00712754
0.00611188 0.00417857 0.00837469
0.00998526 0.00726764 0.00419194
0.00854431 -4.16464e-06 0.0041653
0.00334235 0.002872 -3.83052e-08
0.00270371 0.00154076 0.00999936
0.00282438 -1.06834e-06 0.00283187
0.00479722 0.00519784 0.00755356
0.00315905 0.00314793 0.00316718
0 0.00849157 0.00581511
0.00486631 0.00367418 0.0037856
0.00153705 0.00270883 7.4344e-08
0.00579226 0.00832225 0.00999729
0.00597262 0.0099963 0.00850369
0.00420554 0.00999775 0.00831681
0.00401242 0.00850159 0.00999856
0.00998742 0.00848491 0.00581059
0.00314438 0.0068348 0.00315067
0 0.00748929 0.00137438
0.00137153 0.00748902 6.01091e-08
0 0.00287343 0.00335182
0 0.00580816 0.00831736
0 0.00429792 0.00253898
0.00253222 0.00429694 6.84514e-08
0.00143314 0.00581935 0.00999997
0.00517134 0.00647306 0.00639946
0.003601 0.00651092 0.00823353
0.00694023 0.00262383 0.00999646
0.00800983 0.00195433 0.00803209
0.00695535 -3.46656e-06 0.00308035
0.00600837 0.00166162 0.00361162
0.00998221 0.00286797 0.00334844
0 0.00140616 0.00256446
0.00636434 0.00822426 0.00641939
0.00580397 0.00143255 -5.55164e-07
0.00602426 0.00354896 0.00160213
0.00315015 0.00999859 0.00582498
0.0085462 0.00999403 0.00582997
0.00255634 0.00140518 5.62661e-08
0.00596175 -2.90928e-06 0.0014932
0.00627028 0.0082842 0.00361605
0.00854028 -4.1423e-06 0.00583009
0.00619521 0.00167001 0.00636369
0.00140287 0.00256416 0.01
0.00710207 0.00717734 -1.32108e-06
0.0051572 0.00768722 0.00216818
0.00593131 0.00609003 0.00160086
0 0.00686719 0.00578184
0.00998096 0.00140098 0.00256136
0.00177227 0.00361023 0.00640781
0.00998491 0.00848015 0.00262037
0.0083986 0.00618406 0.00413021
0.00596832 0.00999607 0.00149287
0.00695676 -3.298e-06 0.00692423
0.00998351 0.00143035 0.00581526
0.00838402 0.00356861 0.00605766
0.00150381 -3.31844e-07 0.00581519
0 0.0013659 0.00748679
0.00136544 -2.43091e-07 0.00752896
0.00998629 0.00686083 0.0057774
0.00580396 0.00848786 -8.33719e-07
0 0.0075208 0.00859127
0.001364 0.00748656 0.00999992
0.00422398 0.00820363 0.00362793
0.00858043 0.00999407 0.0075081
0.00998899 0.00862358 0.00752112
0.00576456 0.00158417 0.00999734
0.00724908 0.00418394 0.0099962
0 0.0057735 0.00666667
0.00136788 0.00999974 0.00752891
0 0.00863025 0.00752641
0.00856983 -4.19811e-06 0.00250503
0.00998389 0.00694706 0.00262566
0.00844435 0.00633677 0.00216075
0.00849894 0.0058187 0.00999515
0.00747786 0.00137052 0.00999597
0.0085745 -4.09036e-06 0.00750823
0.00998492 0.00136084 0.00748158
0 0.00143551 0.00581971
0.00596585 -2.7473e-06 0.00850374
0.00420229 -1.87234e-06 0.0033994
0.00791921 0.00470308 0.00203266
0.00998234 0.00429221 0.00253591
0.00422202 0.0099977 0.0066659
0.00282956 0.00999887 0.00283186
0.00130866 -2.94316e-07 0.00241821
0 0.00727418 0.00419576
0.00998644 0.00576759 0.00666182
0.00696189 0.00999528 0.00308004
0.00749887 0.00863218 0.00999593
0 0.00574334 0.00336387
0 0.0043297 0.00416652
0.00686065 0.00578014 0.00999647
0.00998519 0.00301679 0.00691035
0.00421561 -1.78336e-06 0.00666602
0.00247509 0.009999 0.00861128
0.0074684 0.00136195 -1.25318e-06
0.005767 0.0066635 0.0099973
0.00998915 0.00751444 0.00858563
0.00859873 0.00754806 0.00999504
0.00689863 0.0030184 -1.03998e-06
0.00335582 0.00574189 -6.94308e-08
0.00751238 0.00862509 -1.60314e-06
0.00750246 0.0099947 0.00138562
0.00576958 0.00686376 -7.96617e-07
0.00696218 0.00636654 0.00303181
0.00749616 -3.72363e-06 0.00138603
0.00287999 0.00499818 0.00999928
0.00432456 0.00583143 0.00999834
0.00432309 0.00416464 0.00999834
0.00750761 0.009995 0.00861227
0.00247035 -7.36082e-07 0.0086114
0.00998367 0.00573742 0.00336046
0 0.00302218 0.00691532
0.00998703 0.00401216 0.00849653
0.00848381 0.00401281 -1.73779e-06
0.00998083 0.00270369 0.00153898
0 0.00244495 0.00857025
0.00244284 0.00856942 0.0099994
0.00750128 -3.54511e-06 0.00861233
0.00847548 0.00261925 0.00999517
0.00884002 0.00418882 0.00999484
0.00566314 0.00999651 0.00583201
0.00517814 0.00758074 0.00503146
0.00563444 0.00999648 0.00421416
0.00696323 0.00999542 0.00692414
0.00301863 0.00691426 0.00999914
0.00415584 0.00432769 -2.35704e-07
0.00282727 -1.11728e-06 0.00440445
0.00314463 -1.18503e-06 0.00582516
0.00998134 0.00418965 0.00112248
0.00363146 0.00833585 0.00158789
0.00998355 0.00432397 0.00416272
0.00665206 0.00576953 -1.0265e-06
0.00857567 0.00999384 0.00250468
0 0.00848692 0.00262374
0.00134972 0.00999979 0.00405995
0 0.00885053 0.00419359
0.00418591 0.00884817 -3.79053e-07
0.00419779 0.00999765 0.00168729
0.00498844 0.00478881 0.00237821
0.00720327 0.00451753 -1.19563e-06
0.00562766 -2.68614e-06 0.00421446
0.00565638 -2.6531e-06 0.00583219
0.0013111 0.0099998 0.00241812
0.00855097 0.00244022 -1.71788e-06
0.00998622 0.00451607 0.00721445
0.00710493 0.00999522 0.00499819
0.00573459 0.00336102 0.00999739
0.00245056 -8.94946e-07 0.00135646
0.00998636 0.00243973 0.00856458
0.00239085 0.00479057 0.00499982
0.00581932 0.00432694 -7.05252e-07
0.00830022 0.00580294 -1.80619e-06
0.00547294 0.00999671 0.00721882
0.00998495 0.00432445 0.00582883
0.00539418 0.00999663 0.00277481
0.00709846 -3.45356e-06 0.00499844
0.00283236 0.00999886 0.00440432
0 0.00452174 0.00721958
0.00451628 0.0072179 0.00999821
0.00546619 -2.51364e-06 0.00721886
0.00359648 0.00507243 0.00359629
0.00424603 0.00999769 0.00500764
0.00423953 -1.79321e-06 0.0050079
0.00366495 0.0052154 0.00617424
0 0.005744 0.00499998
0 0.00433013 0.00583333
0.00498843 0.0057413 -4.99161e-07
0.00497581 0.0063365 0.00355308
0.00538751 -2.59767e-06 0.00277503
0.00998499 0.00573815 0.00499581
0.00368481 0.00640628 0.00484366
0.0057363 0.00499704 0.00999736
0.00998244 0.0057683 0.00158418
0 0.00666667 0
0.00857495 0.00751509 -2.04147e-06
0.00332245 -1.42168e-06 -1.56805e-08
0 0.01 0.00666667
0.00499686 0.00999709 0.00999789
0 0.00288419 0.00499914
0.00998336 0.00748255 0.0013715
0.00998202 0.00666025 -2.81474e-06
0 0.005 0.01
0.00498586 0.00288169 -3.9596e-07
0 0.005 0
0.00998106 -4.63476e-06 0.00333001
0.00998938 0.00999287 0.00666171
0.00418692 0.00727202 -3.43542e-07
0.00998354 0.00287882 0.00499503
0.00498523 -2.37339e-06 -3.86848e-07
0 0 0.00666667
0.00379136 0.00361514 0.00522598
0.0049903 -2.31664e-06 0.00999785
0.00998374 -4.6122e-06 0.00666186
0 0 0.005
0.00876588 0.00999358 0.00121777
0.00998412 0.00877295 0.00121714
0.00998237 -4.63284e-06 0.00499594
0.00998114 0.00499401 -2.65978e-06
0.00121614 0.00121974 4.71521e-08
0 0.00122008 0.00122008
0 0.00333333 0.01
0 0.00666667 0.01
0.00876434 0.00877371 -2.1777e-06
0.00998664 0.00999271 0.00332967
0.00420873 0.00999769 0.00339924
0.00999002 0.00666051 0.00999366
0 0.00333333 0
0 0.00122008 0.00877992
0.00121659 -2.47987e-07 0.00877987
0.00121698 0.00121981 0.01
0.00877184 0.00999397 0.0087751
0.00121858 0.00877969 0.00999994
0 0.00877992 0.00877992
0.00999015 0.00877325 0.00877415
0.00665517 0.00999535 -1.3215e-06
0.00997993 0.00121497 0.00121746
0.00121881 0.00999972 0.00877992
0.00877199 0.00877417 0.00999484
0.00998906 0.00499426 0.00999367
0 0 0.00333333
0.00664876 -3.21235e-06 -9.55862e-07
0.0087601 -4.24887e-06 0.00121818
0.00120749 -2.99887e-07 0.00121175
0 0.00877992 0.00122008
0.00121783 0.0087796 7.50577e-08
0.00120976 0.00999975 0.00121154
0.00998597 0.00121507 0.00877413
0.00876764 0.00121563 0.00999486
0.0066552 -3.20567e-06 0.00999654
0.00875989 0.00121556 -1.80002e-06
0.00876599 -4.16304e-06 0.00877514
0.00998024 0.0033277 -2.54618e-06
0.00333147 0.00999841 0.009999
0.00245533 0.00999908 0.00135626
0.00666186 0.00999577 0.0099966
0.00998817 0.00332795 0.0099937
0 0.01 0.005
0.00261877 0.00848585 -1.34585e-08
0.00998796 0.00999279 0.00499579
0 0.01 0.00333333
0 0.00166667 0
0.00997982 -4.68836e-06 0.00166391
0 0.00166667 0.01
0 0.00833333 0
0.00998317 0.00832638 -2.78376e-06
0.00998515 -4.61798e-06 0.00832771
0.00998539 0.00999266 0.00166352
0.00999079 0.00999293 0.00832768
0.00166554 0.00999939 0.00999977
0 0.01 0.00833333
0.00831922 0.00999386 -2.10071e-06
0.00831325 -4.02578e-06 -1.64447e-06
0.00832075 -3.9993e-06 0.00999519
0.00832678 0.00999437 0.00999521
0 0 0.00833333
0.00999103 0.00832681 0.00999368
0.00166082 -5.55319e-07 5.74251e-08
0 0 0.00166667
0.00332815 0.00999832 -2.07509e-07
0.00998735 0.00166154 0.00999369
0.00997944 0.00166141 -2.49616e-06
0.0016622 -4.57639e-07 0.00999983
0.00166425 0.00999944 3.5595e-09
0 0.01 0.00166667
0.00999216 0.00999303 0.0099937
0 0 0.01
0.00998429 0.00999254 -2.8875e-06
0.00998655 -4.73054e-06 0.0099937
0 0.01 0.01
0.00997869 -4.65319e-06 -2.49822e-06
0 0.01 0
0 0 0
0.00499164 0.00999687 -6.73061e-07
0.00332597 -1.41166e-06 0.00999889
0 0.00833333 0.01

CELLS 343 686
1 0
1 1
1 2
1 3
1 4
1 5
1 6
1 7
1 8
1 9
1 10
1 11
1 12
1 13
1 14
1 15
1 16
1 17
1 18
1 19
1 20
1 21
1 22
1 23
1 24
1 25
1 26
1 27
1 28
1 29
1 30
1 31
1 32
1 33
1 34
1 35
1 36
1 37
1 38
1 39
1 40
1 41
1 42
1 43
1 44
1 45
1 46
1 47
1 48
1 49
1 50
1 51
1 52
1 53
1 54
1 55
1 56
1 57
1 58
1 59
1 60
1 61
1 62
1 63
1 64
1 65
1 66
1 67
1 68
1 69
1 70
1 71
1 72
1 73
1 74
1 75
1 76
1 77
1 78
1 79
1 80
1 81
1 82
1 83
1 84
1 85
1 86
1 87
1 88
1 89
1 90
1 91
1 92
1 93
1 94
1 95
1 96
1 97
1 98
1 99
1 100
1 101
1 102
1 103
1 104
1 105
1 106
1 107
1 108
1 109
1 110
1 111
1 112
1 113
1 114
1 115
1 116
1 117
1 118
1 119
1 120
1 121
1 122
1 123
1 124
1 125
1 126
1 127
1 128
1 129
1 130
1 131
1 132
1 133
1 134
1 135
1 136
1 137
1 138
1 139
1 140
1 141
1 142
1 143
1 144
1 145
1 146
1 147
1 148
1 149
1 150
1 151
1 152
1 153
1 154
1 155
1 156
1 157
1 158
1 159
1 160
1 161
1 162
1 163
1 164
1 165
1 166
1 167
1 168
1 169
1 170
1 171
1 172
1 173
1 174
1 175
1 176
1 177
1 178
1 179
1 180
1 181
1 182
1 183
1 184
1 185
1 186
1 187
1 188
1 189
1 190
1 191
1 192
1 193
1 194
1 195
1 196
1 197
1 198
1 199
1 200
1 201
1 202
1 203
1 204
1 205
1 206
1 207
1 208
1 209
1 210
1 211
1 212
1 213
1 214
1 215
1 216
1 217
1 218
1 219
1 220
1 221
1 222
1 223
1 224
1 225
1 226
1 227
1 228
1 229
1 230
1 231
1 232
1 233
1 234
1 235
1 236
1 237
1 238
1 239
1 240
1 241
1 242
1 243
1 244
1 245
1 246
1 247
1 248
1 249
1 250
1 251
1 252
1 253
1 254
1 255
1 256
1 257
1 258
1 259
1 260
1 261
1 262
1 263
1 264
1 265
1 266
1 267
1 268
1 269
1 270
1 271
1 272
1 273
1 274
1 275
1 276
1 277
1 278
1 279
1 280
1 281
1 282
1 283
1 284
1 285
1 286
1 287
1 288
1 289
1 290
1 291
1 292
1 293
1 294
1 295
1 296
1 297
1 298
1 299
1 300
1 301
1 302
1 303
1 304
1 305
1 306
1 307
1 308
1 309
1 310
1 311
1 312
1 313
1 314
1 315
1 316
1 317
1 318
1 319
1 320
1 321
1 322
1 323
1 324
1 325
1 326
1 327
1 328
1 329
1 330
1 331
1 332
1 333
1 334
1 335
1 336
1 337
1 338
1 339
1 340
1 341
1 342

CELL_TYPES 343
1
1
1
1
1
1
1
1
1
1
1
1
1
1
1
1
1
1
1
1
1
1
1
1
1
1
1
1
1
1
1
1
1
1
1
1
1
1
1
1
1
1
1
1
1
1
1
1
1
1
1
1
1
1
1
1
1
1
1
1
1
1
1
1
1
1
1
1
1
1
1
1
1
1
1
1
1
1
1
1
1
1
1
1
1
1
1
1
1
1
1
1
1
1
1
1
1
1
1
1
1
1
1
1
1
1
1
1
1
1
1
1
1
1
1
1
1
1
1
1
1
1
1
1
1
1
1
1
1
1
1
1
1
1
1
1
1
1
1
1
1
1
1
1
1
1
1
1
1
1
1
1
1
1
1
1
1
1
1
1
1
1
1
1
1
1
1
1
1
1
1
1
1
1
1
1
1
1
1
1
1
1
1
1
1
1
1
1
1
1
1
1
1
1
1
1
1
1
1
1
1
1
1
1
1
1
1
1
1
1
1
1
1
1
1
1
1
1
1
1
1
1
1
1
1
1
1
1
1
1
1
1
1
1
1
1
1
1
1
1
1
1
1
1
1
1
1
1
1
1
1
1
1
1
1
1
1
1
1
1
1
1
1
1
1
1
1
1
1
1
1
1
1
1
1
1
1
1
1
1
1
1
1
1
1
1
1
1
1
1
1
1
1
1
1
1
1
1
1
1
1
1
1
1
1
1
1
1
1
1
1
1
1
1
1
1
1
1
1
1
1
1
1
1
1
1
1
1
1
1
1
1
1
1
1
1
1
1
1
1
1
1
1

POINT_DATA 343
FIELD FieldData 8

NodeID_(#) 1 343 int
0
1
2
3
4
5
6
7
8
9
10
11
12
13
14
15
16
17
18
19
20
21
22
23
24
25
26
27
28
29
30
31
32
33
34
35
36
37
38
39
40
41
42
43
44
45
46
47
48
49
50
51
52
53
54
55
56
57
58
59
60
61
62
63
64
65
66
67
68
69
70
71
72
73
74
75
76
77
78
79
80
81
82
83
84
85
86
87
88
89
90
91
92
93
94
95
96
97
98
99
100
101
102
103
104
105
106
107
108
109
110
111
112
113
114
115
116
117
118
119
120
121
122
123
124
125
126
127
128
129
130
131
132
133
134
135
136
137
138
139
140
141
142
143
144
145
146
147
148
149
150
151
152
153
154
155
156
157
158
159
160
161
162
163
164
165
166
167
168
169
170
171
172
173
174
175
176
177
178
179
180
181
182
183
184
185
186
187
188
189
190
191
192
193
194
195
196
197
198
199
200
201
202
203
204
205
206
207
208
209
210
211
212
213
214
215
216
217
218
219
220
221
222
223
224
225
226
227
228
229
230
231
232
233
234
235
236
237
238
239
240
241
242
243
244
245
246
247
248
249
250
251
252
253
254
255
256
257
258
259
260
261
262
263
264
265
266
267
268
269
270
271
272
273
274
275
276
277
278
279
280
281
282
283
284
285
286
287
288
289
290
291
292
293
294
295
296
297
298
299
300
301
302
303
304
305
306
307
308
309
310
311
312
313
314
315
316
317
318
319
320
321
322
323
324
325
326
327
328
329
330
331
332
333
334
335
336
337
338
339
340
341
342

Component_(#) 1 343 int
0
0
0
0
0
0
0
0
0
0
0
0
0
0
0
0
0
0
0
0
0
0
0
0
0
0
0
0
0
0
0
0
0
0
0
0
0
0
0
0
0
0
0
0
0
0
0
0
0
0
0
0
0
0
0
0
0
0
0
0
0
0
0
0
0
0
0
0
0
0
0
0
0
0
0
0
0
0
0
0
0
0
0
0
0
0
0
0
0
0
0
0
0
0
0
0
0
0
0
0
0
0
0
0
0
0
0
0
0
0
0
0
0
0
0
0
0
0
0
0
0
0
0
0
0
0
0
0
0
0
0
0
0
0
0
0
0
0
0
0
0
0
0
0
0
0
0
0
0
0
0
0
0
0
0
0
0
0
0
0
0
0
0
0
0
0
0
0
0
0
0
0
0
0
0
0
0
0
0
0
0
0
0
0
0
0
0
0
0
0
0
0
0
0
0
0
0
0
0
0
0
0
0
0
0
0
0
0
0
0
0
0
0
0
0
0
0
0
0
0
0
0
0
0
0
0
0
0
0
0
0
0
0
0
0
0
0
0
0
0
0
0
0
0
0
0
0
0
0
0
0
0
0
0
0
0
0
0
0
0
0
0
0
0
0
0
0
0
0
0
0
0
0
0
0
0
0
0
0
0
0
0
0
0
0
0
0
0
0
0
0
0
0
0
0
0
0
0
0
0
0
0
0
0
0
0
0
0
0
0
0
0
0
0
0
0
0
0
0
0
0
0
0
0
0
0
0
0
0
0
0
0
0
0
0
0
0
0
0
0
0
0
0

NodalMass_(kg) 1 343 double
3.15563e-06
1.41304e-05
2.20912e-06
1.71484e-05
8.42e-06
9.09306e-06
9.93033e-06
7.52198e-06
6.81096e-06
5.58223e-06
3.10888e-06
1.07575e-05
4.87011e-06
1.64955e-05
3.0246e-06
8.05984e-06
6.703e-06
1.0877e-05
4.18978e-06
8.16106e-06
6.14143e-06
1.17902e-05
2.23114e-06
4.25176e-06
1.09915e-05
7.41467e-06
4.21871e-06
3.92484e-06
3.08766e-06
1.31268e-05
7.72627e-06
1.65404e-05
1.19037e-05
7.29666e-06
3.81683e-06
1.11001e-05
3.81317e-06
1.39137e-05
6.37414e-06
8.00975e-06
7.6712e-06
1.18847e-05
1.6399e-05
2.78633e-06
8.93599e-06
2.58087e-06
7.57362e-06
4.23241e-06
1.31286e-05
3.80168e-06
2.7746e-06
7.16776e-06
1.21307e-05
5.11765e-06
8.19728e-06
4.58094e-06
2.79503e-06
3.26126e-06
4.12443e-06
2.11915e-06
3.35177e-06
3.61669e-06
1.56838e-05
7.33679e-06
8.24695e-06
5.00369e-06
2.82625e-06
7.20276e-06
3.26815e-06
4.18751e-06
2.02785e-06
2.42152e-06
3.11835e-06
5.97459e-06
5.87101e-06
4.09374e-06
5.45463e-06
2.28825e-06
4.49759e-06
4.38192e-06
4.50892e-06
4.39234e-06
4.27273e-06
5.32031e-06
1.53201e-06
2.38869e-06
2.02885e-06
4.38798e-06
3.17972e-06
3.14298e-06
4.61567e-06
5.87645e-06
8.18088e-06
2.48341e-06
1.53815e-05
3.49683e-06
7.35227e-06
2.01314e-06
2.0408e-06
7.98183e-06
4.41293e-06
7.1389e-06
1.20123e-06
5.03343e-06
1.61257e-06
4.12601e-06
8.73748e-06
4.37849e-06
7.97173e-06
2.13557e-06
3.38137e-06
9.48623e-06
7.40262e-06
1.80226e-06
2.10222e-06
7.98889e-06
1.87983e-06
7.44814e-06
4.19782e-06
2.37156e-06
4.31705e-06
6.06441e-06
4.30905e-06
2.16843e-06
1.8986e-06
1.81294e-06
3.89762e-06
2.44299e-06
1.65628e-06
8.01374e-06
1.64513e-06
2.3931e-06
3.01363e-06
2.99431e-06
1.36541e-06
1.87293e-06
2.09622e-06
1.94762e-06
1.87618e-06
6.37913e-06
4.58628e-06
2.02767e-06
1.61999e-06
2.41284e-06
3.8865e-06
4.44973e-06
2.29839e-06
1.17349e-05
3.11811e-06
1.354e-06
3.45063e-06
1.81846e-06
2.9382e-06
1.37381e-06
2.41464e-06
2.10451e-06
2.63927e-06
2.14166e-06
1.7943e-06
3.19976e-06
1.36989e-06
2.43489e-06
2.08158e-06
1.3601e-06
2.17203e-06
1.89924e-06
3.16996e-06
2.6119e-06
2.37677e-06
1.60225e-06
1.90684e-06
5.49206e-06
1.87878e-06
3.14313e-06
2.97301e-06
1.18454e-06
1.89263e-06
2.04166e-06
2.73572e-06
2.42405e-06
3.23083e-06
3.19752e-06
3.2142e-06
1.94492e-06
1.61196e-06
1.86876e-06
3.22435e-06
2.1114e-06
2.96917e-06
6.15288e-06
2.3097e-06
2.39729e-06
2.38029e-06
2.64508e-06
1.66557e-06
1.82377e-06
2.06583e-06
5.73271e-06
2.08467e-06
2.18324e-06
2.43522e-06
3.1188e-06
3.17316e-06
2.05447e-06
1.9592e-06
3.05718e-06
6.44327e-06
2.08796e-06
2.72615e-06
2.15709e-06
1.86812e-06
2.0028e-06
2.10999e-06
2.88994e-06
2.3222e-06
2.3979e-06
1.97629e-06
6.4127e-06
2.16225e-06
3.29198e-06
2.10223e-06
2.66566e-06
1.94415e-06
2.91865e-06
2.58116e-06
2.11703e-06
2.09534e-06
1.91719e-06
7.06046e-06
2.25203e-06
2.06378e-06
6.28159e-06
2.12147e-06
2.90924e-06
2.12921e-06
6.4487e-06
1.41701e-06
2.0682e-06
6.58062e-06
2.52584e-06
2.39732e-06
7.42191e-07
2.22368e-06
7.06751e-07
7.00657e-07
8.93749e-07
2.53536e-06
2.26535e-06
1.33607e-06
7.84725e-07
2.32303e-06
6.06694e-07
6.68276e-07
6.84307e-07
2.51242e-06
2.31629e-06
7.8367e-07
6.80839e-07
6.22692e-06
6.7471e-07
6.65305e-07
7.01158e-07
1.8232e-06
1.90695e-06
6.86722e-07
7.04792e-07
1.86445e-06
2.28572e-06
6.8045e-07
7.16005e-07
1.82373e-06
6.01079e-07
2.02791e-06
7.4579e-07
5.74423e-07
1.80052e-06
1.454e-06
2.2702e-06
1.80636e-06
2.15356e-06
1.79089e-06
1.79456e-06
6.8231e-07
2.24737e-06
1.45239e-06
1.79556e-06
6.97875e-07
6.24265e-07
6.62717e-07
1.44627e-06
1.40138e-06
2.15258e-06
1.82851e-06
1.3994e-06
1.43932e-06
2.19226e-06
6.97732e-07
1.77726e-06
1.79162e-06
6.54258e-07
7.3397e-07
2.34895e-06
7.10392e-07
6.56982e-07
6.26314e-07
2.18926e-06
6.12493e-07
6.03901e-07
5.92831e-07
5.12031e-07
5.11667e-07
4.9467e-07
4.97016e-07
4.96269e-07
5.33079e-07
4.94191e-07
4.97855e-07
4.86862e-07
4.90626e-07
4.94649e-07
4.94954e-07
4.91922e-07
4.89615e-07
4.96354e-07
4.95189e-07
4.82188e-07
1.10854e-06
5.3299e-07
5.44763e-07
5.36655e-07
5.15417e-07
5.01772e-07
5.53774e-07
5.53774e-07
5.53774e-07
5.53774e-07
5.53774e-07
5.53774e-07
5.50785e-07
5.50785e-07
7.45291e-07
7.11668e-07
4.9897e-07

NodalForce_(N) 3 343 double
3.42298e-07 -2.21551e-07 2.76213e-08
5.04093e-06 -3.0626e-06 6.68555e-07
-4.14707e-05 2.71481e-05 0.000179526
-7.00441e-06 -4.12321e-06 7.88873e-07
-1.70733e-05 -2.04097e-05 2.27385e-06
-7.87949e-06 -1.81776e-05 1.92275e-06
3.91969e-06 -4.49322e-05 6.36991e-06
4.42014e-06 -2.19394e-05 3.60423e-06
-1.11154e-05 -2.66864e-05 2.8875e-06
2.06704e-06 -9.50478e-06 1.35477e-06
-8.59544e-06 -6.15653e-06 4.57065e-07
-2.84508e-05 -2.85815e-05 2.14199e-06
-1.76557e-05 -1.05353e-05 3.7034e-07
-1.02952e-05 -3.43649e-06 1.04996e-06
-5.32715e-06 -4.93095e-06 5.41441e-07
1.59456e-05 -2.8051e-05 3.35219e-06
1.21787e-05 -1.97191e-05 2.73758e-06
-6.30659e-06 -3.45288e-06 1.51443e-07
-0.000527875 0.000116064 6.97224e-05
-8.21298e-07 -7.19482e-07 -2.0919e-07
-7.07536e-06 -2.45782e-05 3.87763e-06
-3.17179e-05 -6.29133e-05 7.84663e-06
-0.000162853 -0.000582731 -0.000221644
-6.83959e-06 -8.72893e-06 1.38675e-06
-1.93853e-05 -2.73745e-05 5.7867e-06
-1.00765e-06 -8.57633e-06 2.55348e-06
-3.38703e-06 -5.22449e-07 5.82307e-08
-1.1937e-05 -8.70104e-06 1.67557e-06
3.95518e-06 -1.07107e-06 4.41434e-07
1.22744e-05 -1.77957e-06 8.68633e-07
1.15469e-05 -6.91141e-06 2.74684e-06
6.57387e-05 -7.85417e-05 9.0319e-06
-1.06443e-07 -5.83478e-05 6.40589e-06
1.48128e-05 -3.87903e-05 5.19425e-06
2.3955e-05 -2.8325e-05 4.23065e-06
4.41007e-05 -4.7355e-05 6.82847e-06
2.80152e-05 -2.20424e-05 3.08268e-06
7.06796e-05 -6.65412e-05 1.2737e-05
-5.60917e-06 -5.85231e-06 4.61338e-07
-7.50846e-06 -1.11925e-05 1.44163e-06
-1.64947e-05 -1.19751e-05 9.16568e-07
2.72106e-05 -2.1262e-05 2.44011e-06
1.11158e-05 -3.05187e-06 -2.27482e-07
6.47453e-06 -1.80676e-06 -6.52204e-08
2.0724e-05 -1.01485e-05 8.28689e-07
0.000349346 0.000175584 -0.000176179
2.84148e-06 -1.08107e-06 1.88007e-07
-1.41378e-06 0.00025221 9.72289e-05
2.80074e-06 -3.34821e-06 1.49715e-07
-5.01652e-08 -4.51309e-07 -3.53912e-08
6.75633e-06 -1.04956e-05 9.71874e-07
7.9319e-06 -1.89845e-05 2.17097e-06
9.32681e-06 -1.7904e-06 2.66084e-07
4.52759e-06 -2.23201e-06 1.65046e-07
2.25917e-06 -9.37241e-07 7.69904e-08
7.1825e-06 -3.40062e-05 3.85074e-06
0.000220275 0.000220141 0.000279909
1.60307e-06 -4.27642e-07 7.18881e-08
-4.66882e-05 -0.000148158 -0.000111688
7.55452e-06 -1.55817e-05 1.97541e-06
-1.86125e-06 -1.94253e-06 3.31588e-07
-1.22775e-05 -3.05089e-05 4.10677e-06
-3.92321e-05 -9.12564e-05 1.53526e-05
-6.41109e-06 -4.22978e-05 6.26582e-06
-1.59922e-05 -1.20831e-05 1.19742e-06
4.90019e-06 -2.30719e-07 -5.17943e-08
-7.24328e-06 -2.86502e-06 1.89237e-07
-5.63403e-06 -2.04342e-05 2.13957e-06
1.38419e-05 -2.40462e-05 3.66827e-06
-2.25254e-05 -2.89022e-05 3.80462e-06
-3.24169e-07 -1.78748e-06 3.90932e-07
-3.47789e-06 -1.80006e-06 2.22603e-07
-7.42958e-06 -3.43998e-06 2.30228e-07
9.10018e-07 -9.0184e-06 1.10091e-06
-2.70117e-06 -3.74779e-06 5.13299e-07
0.000438838 8.24846e-05 0.000167737
-3.34676e-06 -9.86959e-06 1.65764e-06
-1.45802e-07 -1.52177e-07 7.07907e-09
1.35068e-05 -1.16022e-05 8.64963e-07
2.15088e-05 -1.27837e-05 1.38254e-06
1.47307e-05 -6.88098e-06 6.07665e-07
8.99807e-06 -5.85087e-06 1.76834e-07
2.34601e-05 -3.14257e-05 4.2505e-06
5.60027e-06 -2.56284e-06 6.79867e-07
-5.23708e-06 -0.000518821 7.94884e-05
1.58294e-06 -1.47631e-08 -6.31038e-10
1.22241e-05 -0.000307633 0.000124744
-8.11071e-05 -0.000206725 5.82653e-05
-0.000116436 -7.14249e-05 -7.83923e-05
1.68306e-06 -1.20414e-06 3.54041e-07
7.79332e-07 -3.66749e-07 -2.06625e-08
8.83644e-06 -1.05515e-05 1.27764e-06
6.23647e-06 -5.20047e-06 5.43006e-07
-6.89023e-06 -1.04616e-05 1.03451e-06
-5.49989e-05 -8.71442e-05 8.29091e-06
-1.66566e-05 -1.75307e-05 2.60087e-06
-2.03756e-05 -2.60272e-05 3.91075e-06
-2.76909e-06 -1.61441e-05 2.4413e-06
-0.000127946 -0.000117664 -2.90926e-05
2.88858e-05 -2.44924e-05 2.57409e-06
-1.07284e-05 -1.56894e-05 2.89105e-06
-4.03272e-06 -2.19194e-05 4.7952e-06
3.1077e-06 -1.05196e-06 1.11698e-07
3.52516e-05 -2.89796e-05 3.59896e-06
-1.38706e-06 -1.33685e-06 1.98635e-07
-1.72393e-05 -1.61693e-05 3.10088e-06
3.60292e-05 -2.63041e-05 4.54369e-06
-2.47491e-05 -2.99589e-05 3.36141e-06
-2.55262e-05 -2.91672e-05 2.51034e-06
-6.82748e-07 -1.03739e-07 -7.50387e-10
1.40033e-05 -1.27847e-05 2.96748e-06
3.02635e-05 -1.85671e-05 4.27944e-06
1.62516e-05 -1.79274e-05 4.69962e-06
-0.000182051 -0.000222839 -0.000225196
-6.61475e-06 -1.78613e-05 2.67131e-06
-1.08089e-06 -1.17297e-06 1.8409e-07
1.15172e-05 -1.39308e-05 2.33995e-06
1.851e-05 -3.9886e-05 6.26115e-06
2.53505e-05 -1.28383e-05 2.47848e-06
-1.28379e-05 -1.17601e-05 9.41247e-07
-1.59819e-05 -3.62056e-05 4.35467e-06
-7.42784e-06 -3.47585e-05 4.32452e-06
-3.62607e-06 -7.533e-07 1.99998e-09
1.32216e-07 1.06068e-05 -2.8013e-05
-1.4448e-06 -3.04703e-07 -2.46348e-08
6.16496e-06 -1.33397e-05 1.79276e-06
1.85343e-05 -1.03397e-05 2.54722e-06
-7.05509e-05 -0.000363539 -1.72469e-05
5.38192e-07 -8.69137e-08 -2.05483e-08
2.1103e-05 -1.0654e-05 1.49947e-06
1.10538e-05 -9.57604e-06 1.06182e-06
1.28816e-05 -1.75368e-05 2.0767e-06
-1.05922e-05 -9.91748e-06 8.55228e-07
-3.16572e-06 -1.22726e-05 1.29707e-06
-9.73412e-06 -0.00059399 -4.00522e-05
1.53897e-06 -1.16396e-07 3.61532e-08
7.10549e-05 -0.000146876 -0.000139802
-9.93712e-06 -1.37372e-05 2.14917e-06
7.71957e-06 -1.38361e-05 2.32337e-06
1.9716e-05 -3.46723e-05 6.27168e-06
4.85168e-06 -2.50058e-05 2.5537e-06
-8.6913e-06 -1.06228e-05 9.44942e-07
-9.67557e-06 -1.1238e-05 9.81441e-07
-9.92866e-06 -2.02403e-05 2.21812e-06
-0.000455074 -4.57691e-06 7.02845e-05
-2.26775e-05 -1.69472e-05 1.11286e-06
-8.02248e-06 -5.21465e-06 6.19081e-07
1.07747e-05 -5.85395e-05 1.06196e-05
1.96565e-06 -2.40316e-05 3.83252e-06
4.94493e-06 -2.17027e-06 1.20184e-07
9.06973e-06 -2.21803e-06 2.67831e-07
-1.29636e-06 -2.55404e-07 6.76268e-08
1.77249e-05 -0.000334677 -5.6637e-05
2.44502e-06 -1.02247e-05 1.27072e-06
1.57491e-05 -9.79899e-06 1.54417e-06
8.74724e-06 -9.16803e-06 8.54938e-07
0.000245234 -0.000378778 0.00010594
-0.000719595 -6.11194e-05 0.000263061
1.44063e-06 -6.17503e-06 7.01258e-07
-5.94589e-06 -2.53533e-05 2.93375e-06
-5.10691e-06 -3.05524e-06 1.62174e-07
4.76596e-06 -1.35798e-06 4.20871e-08
-5.74033e-06 -1.12877e-05 2.03762e-06
1.9463e-06 -3.20559e-06 2.92764e-07
8.16202e-06 -1.58978e-05 1.70531e-06
6.23619e-06 -1.04179e-05 1.03842e-06
-2.79577e-06 -1.33006e-05 2.83571e-06
3.26434e-06 -1.38944e-06 6.79195e-07
1.41409e-05 -1.04536e-05 2.26843e-06
1.15101e-05 -7.55131e-06 1.36997e-06
6.03525e-06 -4.55953e-06 1.23204e-06
1.43745e-05 -1.95555e-05 3.73849e-06
-8.75594e-06 -1.08975e-05 1.89529e-06
2.04072e-07 -1.3357e-06 2.34113e-07
9.2053e-07 -3.29635e-06 3.81557e-07
-8.21933e-07 -1.45829e-06 1.92768e-07
1.12021e-05 -8.74211e-06 9.14441e-07
-4.43565e-06 -1.79126e-06 8.41452e-08
6.44176e-06 -2.04836e-05 3.24969e-06
1.99275e-05 -0.000491468 -0.000271132
-2.74545e-06 -2.47471e-05 2.77323e-06
1.56817e-06 -1.88923e-05 3.73947e-06
-3.99832e-06 -2.61066e-05 4.21748e-06
3.18333e-05 -0.00040819 6.1539e-05
1.8097e-06 -8.03519e-07 -7.54828e-09
-1.08529e-05 -1.0595e-05 7.66105e-07
-9.86372e-06 -1.93986e-05 1.83269e-06
-2.18969e-06 -1.29311e-05 1.2946e-06
1.434e-05 -8.14757e-06 7.2375e-07
1.58019e-05 -1.19312e-05 1.52703e-06
1.17636e-05 -6.34865e-06 8.02427e-07
1.39718e-05 -9.57548e-06 8.7496e-07
1.66401e-06 -8.90345e-07 7.3354e-08
1.70647e-06 -3.02365e-06 1.09852e-06
-3.91547e-06 -1.91102e-06 1.83852e-07
-5.09276e-06 -2.37219e-06 2.37121e-07
1.57545e-06 -1.60846e-05 2.78376e-06
1.42702e-05 -5.92081e-06 1.65236e-06
7.81579e-07 -1.59997e-05 2.3925e-06
5.00756e-06 -7.25453e-06 1.84069e-06
1.87697e-05 -1.4297e-05 2.2826e-06
9.3472e-05 -0.000153262 0.000122314
2.56589e-06 -1.94742e-07 -3.63017e-08
1.32706e-05 0.000102517 -2.73644e-05
7.11161e-06 -2.95518e-06 7.98236e-07
1.29895e-05 -5.02078e-06 9.51884e-07
3.6847e-06 -1.07469e-05 2.6652e-06
1.93543e-06 -8.76016e-06 1.97237e-06
-1.16886e-05 -9.82246e-06 1.23703e-06
-9.78276e-06 -7.74835e-06 5.77317e-07
1.61979e-06 -1.14008e-07 -1.81979e-08
-3.00672e-06 -1.27574e-05 2.38732e-06
8.66582e-08 -1.60552e-05 1.89673e-06
1.82483e-05 -1.20467e-05 1.4851e-06
-3.919e-06 -6.16442e-06 6.58722e-07
-4.62755e-06 -2.08863e-06 3.40913e-07
-5.7897e-06 -1.60085e-05 1.77511e-06
1.21192e-06 -1.97368e-06 3.37384e-07
1.1465e-06 -5.77838e-06 1.56637e-06
9.18105e-06 -1.75763e-05 3.67813e-06
9.62801e-06 -5.29957e-06 5.43844e-07
1.01111e-07 -2.04164e-05 2.69013e-06
1.01099e-05 -4.97093e-06 7.07618e-07
-1.49599e-05 -1.49597e-05 1.71119e-06
6.41998e-06 -1.64929e-06 1.46818e-07
-0.000304512 -0.000116582 5.40654e-05
3.03712e-06 -2.8176e-06 2.30214e-07
-8.76765e-06 -6.40796e-06 3.32532e-07
2.91219e-06 -5.28432e-06 8.79701e-07
8.76965e-06 -3.67327e-06 3.41867e-07
-7.65741e-06 -4.72265e-06 4.57858e-07
1.86096e-06 -4.78127e-06 5.96867e-07
0.000218491 -0.000536982 -1.59701e-05
-3.54041e-05 -6.80721e-05 3.44248e-05
3.84296e-06 -3.3232e-06 1.2418e-06
1.08463e-05 -1.03294e-05 2.17968e-06
-5.67498e-06 -4.79376e-06 7.53553e-07
4.23686e-06 -1.5431e-05 2.20657e-06
6.49525e-06 -4.81067e-06 6.4415e-07
-2.63327e-07 -5.75937e-06 6.60135e-07
6.58049e-06 -1.80195e-05 3.12885e-06
8.8715e-05 -6.14645e-05 5.62906e-05
1.12181e-05 -1.23781e-05 2.52201e-06
-1.59032e-06 -1.25062e-06 3.07609e-07
0.000262728 -0.000204861 3.67678e-06
3.34565e-06 -2.00536e-06 2.05139e-07
0.000203447 -0.000417838 -3.71609e-05
1.14766e-05 -1.66635e-05 3.02565e-06
5.66782e-06 -9.91534e-06 1.8956e-06
9.03044e-05 -0.000188876 -6.08059e-05
-1.79563e-06 -5.17853e-06 1.18887e-06
-0.000154406 -0.000188652 -0.000152048
-3.45551e-06 -5.94429e-06 8.30882e-07
5.00179e-06 -5.20343e-06 6.14145e-07
6.35984e-06 -2.8731e-06 1.03877e-06
-3.96694e-06 -1.84563e-05 2.49176e-06
-2.578e-06 -2.51748e-06 5.36622e-07
-0.000216155 -0.000243172 -8.10508e-06
-3.42768e-06 -5.9418e-06 6.58081e-07
-2.97635e-06 -2.04482e-06 7.65431e-08
-3.84594e-06 -5.85173e-06 6.32148e-07
-0.000172749 -0.000145718 1.02909e-05
1.4666e-05 -1.11812e-05 1.95444e-06
1.2958e-05 -1.42729e-05 2.52117e-06
-3.77132e-06 -6.06088e-06 7.48803e-07
1.43645e-06 -5.4039e-06 1.01412e-06
-5.34868e-07 -3.50895e-07 -1.73805e-08
-5.28591e-05 9.81116e-05 1.23132e-05
2.88522e-05 -6.49845e-05 -5.1667e-05
0.000117692 -0.000168554 -7.80762e-05
1.22507e-05 -1.08347e-05 2.06687e-06
4.78529e-06 -4.60555e-06 6.84834e-07
8.21234e-06 -3.32234e-06 3.53968e-07
1.75188e-06 -5.45853e-06 6.27383e-07
-3.7205e-05 -0.000105457 -4.68739e-06
-0.00015369 0.00010841 2.56602e-05
-1.04325e-06 -3.23377e-07 -9.40047e-08
-9.48739e-07 -2.60727e-07 5.14387e-08
1.1873e-05 -1.09873e-05 1.21065e-06
9.35862e-07 -2.07349e-07 -4.59612e-08