# vtk DataFile Version 4.2
vtk output
ASCII
DATASET UNSTRUCTURED_GRID

POINTS 343 double
0.00112263 0.0041949 9.68256e-08
0.0021713 0.00498246 0.00217539
0 0.00419538 0.00112517
0.00193008 0.00195439 0.00194219
0.005169 0.00240623 0.00503249
0.0051718 0.00382951 0.0063978
0.00762272 0.00477422 0.00499956
0.00622496 0.00484963 0.0036922
0.00683554 0.00328756 0.00691446
0.00499115 0.00499207 0.00500004
0.00417925 0.0011176 0.00999936
0.00527998 0.00207955 0.00790438
0.00418912 -8.01542e-06 0.00831737
0.00201219 0.00200242 0.00803329
0.00428526 0.00253244 0.00999942
0.00695672 0.00644583 0.0069474
0.00641415 0.00618161 0.00518346
0.00226049 0.00218455 0.00514614
0 0.00143586 0.00417514
0.00159461 0.00346613 0.00403704
0.00683721 0.00319287 0.00316204
0.00774479 0.00221159 0.00506458
0 0.00270918 0.00154168
0.00415837 0.00142798 4.96766e-07
0.00500774 0.00218716 0.00219839
0.00396278 0.00352639 0.0016034
0.00134523 -6.32432e-07 0.00406004
0.00418297 -8.34994e-06 0.00168858
0.00262687 0.00695155 2.69199e-07
0.00193861 0.0080527 0.00194495
0.00408833 0.00624782 0.0016454
0.00800339 0.00798457 0.00799787
0.00796432 0.00481421 0.00802289
0.00838865 0.00607805 0.00594859
0.0100007 0.00882325 0.0041928
0.00757791 0.0076344 0.00496421
0.00856892 0.00997824 0.00416716
0.00797832 0.00796969 0.00201665
0.00353575 0.0030363 0.00695963
0.0044369 0.00366153 0.00832424
0.00389183 0.00160012 0.00596914
0.00500582 0.00766775 0.00767692
0.00198975 0.00800783 0.00798966
0.00282801 0.00999711 0.0071272
0.00391718 0.00839917 0.00595793
0 0.00695361 0.00262895
0.00164663 0.00623922 0.00408791
0 0.0040177 0.00850214
0.00231506 0.00498565 0.00766154
0.00143324 0.00417445 0.00999996
0.0071748 0.00711693 0.00999833
0.00611802 0.00596995 0.0084177
0.00205211 0.00794139 0.00474187
0.00304394 0.00694277 0.00646777
0.001587 0.00607832 0.00592603
0.00998894 0.00578145 0.00831544
0 0.00718191 0.00711644
0.00158483 0.00577341 7.98014e-08
0 0.00577432 0.00158701
0.00999442 0.00715518 0.00711488
0.00286705 0.00334914 0.00999981
0.00996952 0.0014065 0.00417494
0.0080362 0.00194121 0.00197966
0.0083893 0.00350038 0.00399887
0.00372544 0.00164763 0.00412845
0.00150961 0.00999966 0.00581503
0.002809 -3.85952e-06 0.00712777
0.00610919 0.00417062 0.00837617
0.00999408 0.00724722 0.00419512
0.00852745 -2.41237e-05 0.00416806
0.00334202 0.00286944 3.3498e-07
0.00269968 0.00153864 0.00999983
0.00281798 -4.24547e-06 0.00283212
0.00479772 0.00519364 0.0075544
0.00315819 0.0031461 0.00316745
0 0.00849157 0.00581511
0.00486481 0.00366901 0.00378642
0.00153716 0.00270864 6.08197e-08
0.00579991 0.00831515 0.00999866
0.00598568 0.00998841 0.00850521
0.00421467 0.00999363 0.00831746
0.00401799 0.00849792 0.00999911
0.00999959 0.00846459 0.00581385
0.00314782 0.00683341 0.00315097
0 0.00748929 0.00137438
0.00137366 0.00748898 3.21641e-08
0 0.00287343 0.00335182
0 0.00580816 0.00831736
0 0.00429792 0.00253898
0.00253395 0.00429581 2.71302e-07
0.00143386 0.00581915 0.00999997
0.00517566 0.00646807 0.00640024
0.00360336 0.00650919 0.00823392
0.00693121 0.0026118 0.00999862
0.0079983 0.00193811 0.00803454
0.00694119 -1.79202e-05 0.00308233
0.00600035 0.00165147 0.00361307
0.0099753 0.00284505 0.00335185
0 0.00140616 0.00256446
0.00637406 0.00821579 0.00642056
0.00579666 0.00142231 9.07114e-07
0.00602235 0.00354012 0.00160369
0.00315778 0.00999623 0.00582519
0.00856392 0.00997842 0.00583225
0.00255408 0.0014028 2.96459e-07
0.00594953 -1.42375e-05 0.00149506
0.0062815 0.00827583 0.00361726
0.00852258 -2.39354e-05 0.00583284
0.00618585 0.00165954 0.00636499
0.00140221 0.00256405 0.01
0.00711274 0.00716666 5.0322e-07
0.00516621 0.00768171 0.00216911
0.00593725 0.00608312 0.00160225
0 0.00686719 0.00578184
0.009969 0.00137658 0.00256482
0.00177225 0.00360985 0.00640788
0.00999891 0.00845959 0.00262347
0.0084041 0.00616899 0.00413252
0.00598477 0.00998771 0.00149401
0.0069406 -1.7641e-05 0.00692595
0.00996994 0.00140632 0.00581884
0.00837899 0.00355234 0.00606024
0.00150172 -8.11735e-07 0.0058152
0 0.0013659 0.00748679
0.00136356 -6.89798e-07 0.00752891
0.00999273 0.00684039 0.00578067
0.00581685 0.00848044 4.19002e-07
0 0.0075208 0.00859127
0.00136517 0.00748641 0.0099999
0.00423176 0.00819993 0.00362829
0.00859717 0.00997828 0.00751072
0.0100007 0.00860339 0.00752456
0.00575396 0.00157472 0.00999889
0.00724479 0.00417238 0.00999849
0 0.0057735 0.00666667
0.00137051 0.0099996 0.00752893
0 0.00863025 0.00752641
0.00855371 -2.45803e-05 0.00250795
0.00999238 0.00692649 0.00262881
0.0084515 0.00632145 0.00216305
0.00849987 0.00580349 0.00999808
0.00746426 0.00135546 0.00999837
0.00855571 -2.41867e-05 0.00751084
0.00997003 0.00133677 0.00748527
0 0.00143551 0.00581971
0.00595087 -1.3778e-05 0.00850507
0.00419264 -8.41257e-06 0.00340017
0.00792068 0.00468886 0.00203478
0.00998108 0.00427024 0.00253908
0.00423241 0.00999338 0.00666622
0.00283732 0.00999714 0.00283197
0.00130692 -6.8795e-07 0.00241834
0 0.00727418 0.00419576
0.00998828 0.00574671 0.00666524
0.00697927 0.00998423 0.00308143
0.00750892 0.00862019 0.00999824
0 0.00574334 0.00336387
0 0.0043297 0.00416652
0.00686175 0.00577055 0.0099986
0.00997677 0.00299422 0.00691392
0.00420523 -8.21635e-06 0.00666656
0.00248082 0.00999754 0.00861141
0.00745946 0.00134635 9.8974e-07
0.00577033 0.00665698 0.00999871
0.00999628 0.00749417 0.00858914
0.00860573 0.00753288 0.00999798
0.00689533 0.00300629 9.86416e-07
0.00335949 0.00574031 4.52541e-07
0.00752782 0.00861286 3.68122e-07
0.0075213 0.00998185 0.00138741
0.0057781 0.00685693 4.94404e-07
0.0069689 0.00635651 0.00303342
0.00748192 -2.04562e-05 0.00138851
0.00288022 0.00499702 0.00999972
0.00432522 0.00582836 0.00999921
0.00432094 0.00416119 0.00999929
0.0075227 0.00998245 0.00861456
0.00246442 -3.27267e-06 0.00861159
0.0099873 0.00571623 0.00336365
0 0.00302218 0.00691532
0.00998133 0.00399045 0.00850023
0.00848345 0.00399585 8.70643e-07
0.00997424 0.00268041 0.00154223
0 0.00244495 0.00857025
0.00244607 0.00856806 0.00999958
0.00748352 -1.99577e-05 0.00861439
0.0084648 0.00260206 0.00999808
0.00883475 0.00417149 0.00999799
0.00567649 0.00998908 0.0058328
0.00518549 0.00757535 0.00503214
0.00564857 0.00998902 0.00421495
0.00697857 0.00998459 0.0069256
0.00302062 0.00691324 0.0099995
0.0041577 0.00432435 6.58893e-07
0.00282098 -4.39566e-06 0.00440482
0.00313709 -4.91507e-06 0.0058256
0.00998038 0.00416741 0.0011257
0.00363871 0.00833294 0.00158847
0.00998159 0.00430219 0.00416615
0.00665782 0.00576001 7.70866e-07
0.00859537 0.00997787 0.00250683
0 0.00848692 0.00262374
0.00135231 0.00999963 0.00405988
0 0.00885053 0.00419359
0.00419606 0.00884395 3.96101e-07
0.00420984 0.00999316 0.00168786
0.0049902 0.00478403 0.00237915
0.00720495 0.00450548 8.89449e-07
0.00561544 -1.30741e-05 0.00421577
0.00564341 -1.30126e-05 0.00583324
0.00131384 0.00999965 0.00241806
0.00854495 0.00242192 9.786e-07
0.00998314 0.00449459 0.00721802
0.00712163 0.00998392 0.00499961
0.00572921 0.00335351 0.00999894
0.00244538 -3.42308e-06 0.00135683
0.00997473 0.00241658 0.00856842
0.00239182 0.00478972 0.00499996
0.00582042 0.00431921 8.89179e-07
0.00830646 0.00578778 6.40671e-07
0.00548551 0.00998988 0.00721981
0.00998196 0.00430278 0.00583232
0.00540863 0.00998966 0.0027755
0.00708317 -1.82554e-05 0.00500034
0.00283974 0.00999715 0.00440437
0 0.00452174 0.00721958
0.00452007 0.0072142 0.00999907
0.00545305 -1.21672e-05 0.00721976
0.00359813 0.0050703 0.00359661
0.00425722 0.0099933 0.00500797
0.00422931 -8.39968e-06 0.00500862
0.00366624 0.00521328 0.00617453
0 0.005744 0.00499998
0 0.00433013 0.00583333
0.00499337 0.00573677 7.32509e-07
0.00498076 0.00633197 0.00355387
0.00537607 -1.23482e-05 0.00277645
0.00998771 0.00571709 0.00499917
0.00368809 0.00640422 0.00484389
0.00573538 0.00499068 0.00999887
0.00998709 0.00574698 0.00158729
0 0.00666667 0
0.0085872 0.00749945 3.67884e-07
0.00331615 -6.5291e-06 1.06963e-06
0 0.01 0.00666667
0.00500674 0.00999103 0.00999917
0 0.00288419 0.00499914
0.00999443 0.00746205 0.00137456
0.00999071 0.00663931 3.70742e-07
0 0.005 0.01
0.00498351 0.00287524 7.14538e-07
0 0.005 0
0.00996325 -3.04396e-05 0.00333358
0.0100063 0.00997228 0.00666497
0.00419405 0.00726873 4.72225e-07
0.00997565 0.00285604 0.00499855
0.00497564 -1.16644e-05 1.27488e-06
0 0 0.00666667
0.00379028 0.00361246 0.00522633
0.00497731 -1.10978e-05 0.00999872
0.00996407 -3.01508e-05 0.00666547
0 0 0.005
0.00878625 0.00997688 0.00122007
0.00999991 0.00875224 0.00122012
0.00996362 -3.02412e-05 0.00499955
0.00998364 0.00497217 6.076e-07
0.00121558 0.00121921 5.91411e-09
0 0.00122008 0.00122008
0 0.00333333 0.01
0 0.00666667 0.01
0.00878097 0.00875727 1.78366e-07
0.0100055 0.00997192 0.00333262
0.00422035 0.00999325 0.00339952
0.00999298 0.00664015 0.00999775
0 0.00333333 0
0 0.00122008 0.00877992
0.00121478 -8.79142e-07 0.00877969
0.00121602 0.00121949 0.0100001
0.00878785 0.00997744 0.00877819
0.00122004 0.00877943 0.0099999
0 0.00877992 0.00877992
0.0100017 0.00875297 0.00877778
0.00667348 0.00998492 2.95061e-08
0.00996787 0.00119014 0.00122088
0.0012211 0.00999943 0.00878012
0.00878323 0.00875802 0.00999799
0.00998587 0.0049731 0.00999777
0 0 0.00333333
0.00663615 -1.73664e-05 1.45562e-06
0.0087444 -2.56365e-05 0.00122128
0.00120589 -9.06608e-07 0.00121213
0 0.00877992 0.00122008
0.00122016 0.00877939 1.16188e-07
0.00121252 0.00999948 0.00121143
0.00996966 0.00119076 0.00877788
0.0087515 0.00119576 0.00999791
0.00663833 -1.68079e-05 0.0099981
0.00874919 0.00119511 1.1004e-06
0.00874622 -2.50939e-05 0.00877792
0.00997665 0.00330481 7.91237e-07
0.0033383 0.00999523 0.0099998
0.00246238 0.00999772 0.0013564
0.00667512 0.0099856 0.00999879
0.00997882 0.00330577 0.00999776
0 0.01 0.005
0.0026246 0.00848452 2.83786e-07
0.0100059 0.00997211 0.00499886
0 0.01 0.00333333
0 0.00166667 0
0.00996289 -3.07102e-05 0.00166753
0 0.00166667 0.01
0 0.00833333 0
0.00999786 0.00830567 1.25297e-07
0.0099645 -3.02258e-05 0.00833129
0.0100052 0.0099717 0.00166646
0.0100067 0.00997231 0.00833132
0.00166909 0.00999842 0.00999996
0 0.01 0.00833333
0.00833982 0.00997849 3.19082e-08
0.00829861 -2.41374e-05 1.34606e-06
0.00830093 -2.35572e-05 0.00999776
0.00834175 0.00997904 0.00999823
0 0 0.00833333
0.0100002 0.00830651 0.0099977
0.00165775 -2.26538e-06 3.24626e-07
0 0 0.00166667
0.00333843 0.00999544 2.30744e-07
0.00997182 0.00163753 0.00999769
0.00996957 0.00163686 9.27702e-07
0.00165868 -1.86113e-06 0.01
0.001669 0.00999874 1.16271e-07
0 0.01 0.00166667
0.0100072 0.00997231 0.00999779
0 0 0.01
0.0100049 0.00997153 -1.65992e-07
0.00996486 -3.03292e-05 0.00999738
0 0.01 0.01
0.00996254 -3.09501e-05 1.20318e-06
0 0.01 0
0 0 0
0.00500621 0.00999052 1.69667e-07
0.00331743 -5.85405e-06 0.00999923
0 0.00833333 0.01

CELLS 343 686
1 0
1 1
1 2
1 3
1 4
1 5
1 6
1 7
1 8
1 9
1 10
1 11
1 12
1 13
1 14
1 15
1 16
1 17
1 18
1 19
1 20
1 21
1 22
1 23
1 24
1 25
1 26
1 27
1 28
1 29
1 30
1 31
1 32
1 33
1 34
1 35
1 36
1 37
1 38
1 39
1 40
1 41
1 42
1 43
1 44
1 45
1 46
1 47
1 48
1 49
1 50
1 51
1 52
1 53
1 54
1 55
1 56
1 57
1 58
1 59
1 60
1 61
1 62
1 63
1 64
1 65
1 66
1 67
1 68
1 69
1 70
1 71
1 72
1 73
1 74
1 75
1 76
1 77
1 78
1 79
1 80
1 81
1 82
1 83
1 84
1 85
1 86
1 87
1 88
1 89
1 90
1 91
1 92
1 93
1 94
1 95
1 96
1 97
1 98
1 99
1 100
1 101
1 102
1 103
1 104
1 105
1 106
1 107
1 108
1 109
1 110
1 111
1 112
1 113
1 114
1 115
1 116
1 117
1 118
1 119
1 120
1 121
1 122
1 123
1 124
1 125
1 126
1 127
1 128
1 129
1 130
1 131
1 132
1 133
1 134
1 135
1 136
1 137
1 138
1 139
1 140
1 141
1 142
1 143
1 144
1 145
1 146
1 147
1 148
1 149
1 150
1 151
1 152
1 153
1 154
1 155
1 156
1 157
1 158
1 159
1 160
1 161
1 162
1 163
1 164
1 165
1 166
1 167
1 168
1 169
1 170
1 171
1 172
1 173
1 174
1 175
1 176
1 177
1 178
1 179
1 180
1 181
1 182
1 183
1 184
1 185
1 186
1 187
1 188
1 189
1 190
1 191
1 192
1 193
1 194
1 195
1 196
1 197
1 198
1 199
1 200
1 201
1 202
1 203
1 204
1 205
1 206
1 207
1 208
1 209
1 210
1 211
1 212
1 213
1 214
1 215
1 216
1 217
1 218
1 219
1 220
1 221
1 222
1 223
1 224
1 225
1 226
1 227
1 228
1 229
1 230
1 231
1 232
1 233
1 234
1 235
1 236
1 237
1 238
1 239
1 240
1 241
1 242
1 243
1 244
1 245
1 246
1 247
1 248
1 249
1 250
1 251
1 252
1 253
1 254
1 255
1 256
1 257
1 258
1 259
1 260
1 261
1 262
1 263
1 264
1 265
1 266
1 267
1 268
1 269
1 270
1 271
1 272
1 273
1 274
1 275
1 276
1 277
1 278
1 279
1 280
1 281
1 282
1 283
1 284
1 285
1 286
1 287
1 288
1 289
1 290
1 291
1 292
1 293
1 294
1 295
1 296
1 297
1 298
1 299
1 300
1 301
1 302
1 303
1 304
1 305
1 306
1 307
1 308
1 309
1 310
1 311
1 312
1 313
1 314
1 315
1 316
1 317
1 318
1 319
1 320
1 321
1 322
1 323
1 324
1 325
1 326
1 327
1 328
1 329
1 330
1 331
1 332
1 333
1 334
1 335
1 336
1 337
1 338
1 339
1 340
1 341
1 342

CELL_TYPES 343
1
1
1
1
1
1
1
1
1
1
1
1
1
1
1
1
1
1
1
1
1
1
1
1
1
1
1
1
1
1
1
1
1
1
1
1
1
1
1
1
1
1
1
1
1
1
1
1
1
1
1
1
1
1
1
1
1
1
1
1
1
1
1
1
1
1
1
1
1
1
1
1
1
1
1
1
1
1
1
1
1
1
1
1
1
1
1
1
1
1
1
1
1
1
1
1
1
1
1
1
1
1
1
1
1
1
1
1
1
1
1
1
1
1
1
1
1
1
1
1
1
1
1
1
1
1
1
1
1
1
1
1
1
1
1
1
1
1
1
1
1
1
1
1
1
1
1
1
1
1
1
1
1
1
1
1
1
1
1
1
1
1
1
1
1
1
1
1
1
1
1
1
1
1
1
1
1
1
1
1
1
1
1
1
1
1
1
1
1
1
1
1
1
1
1
1
1
1
1
1
1
1
1
1
1
1
1
1
1
1
1
1
1
1
1
1
1
1
1
1
1
1
1
1
1
1
1
1
1
1
1
1
1
1
1
1
1
1
1
1
1
1
1
1
1
1
1
1
1
1
1
1
1
1
1
1
1
1
1
1
1
1
1
1
1
1
1
1
1
1
1
1
1
1
1
1
1
1
1
1
1
1
1
1
1
1
1
1
1
1
1
1
1
1
1
1
1
1
1
1
1
1
1
1
1
1
1
1
1
1
1
1
1
1
1
1
1
1
1
1
1
1
1
1
1
1
1
1
1
1
1
1
1
1
1
1
1
1
1
1
1
1
1

POINT_DATA 343
FIELD FieldData 8

NodeID_(#) 1 343 int
0
1
2
3
4
5
6
7
8
9
10
11
12
13
14
15
16
17
18
19
20
21
22
23
24
25
26
27
28
29
30
31
32
33
34
35
36
37
38
39
40
41
42
43
44
45
46
47
48
49
50
51
52
53
54
55
56
57
58
59
60
61
62
63
64
65
66
67
68
69
70
71
72
73
74
75
76
77
78
79
80
81
82
83
84
85
86
87
88
89
90
91
92
93
94
95
96
97
98
99
100
101
102
103
104
105
106
107
108
109
110
111
112
113
114
115
116
117
118
119
120
121
122
123
124
125
126
127
128
129
130
131
132
133
134
135
136
137
138
139
140
141
142
143
144
145
146
147
148
149
150
151
152
153
154
155
156
157
158
159
160
161
162
163
164
165
166
167
168
169
170
171
172
173
174
175
176
177
178
179
180
181
182
183
184
185
186
187
188
189
190
191
192
193
194
195
196
197
198
199
200
201
202
203
204
205
206
207
208
209
210
211
212
213
214
215
216
217
218
219
220
221
222
223
224
225
226
227
228
229
230
231
232
233
234
235
236
237
238
239
240
241
242
243
244
245
246
247
248
249
250
251
252
253
254
255
256
257
258
259
260
261
262
263
264
265
266
267
268
269
270
271
272
273
274
275
276
277
278
279
280
281
282
283
284
285
286
287
288
289
290
291
292
293
294
295
296
297
298
299
300
301
302
303
304
305
306
307
308
309
310
311
312
313
314
315
316
317
318
319
320
321
322
323
324
325
326
327
328
329
330
331
332
333
334
335
336
337
338
339
340
341
342

Component_(#) 1 343 int
0
0
0
0
0
0
0
0
0
0
0
0
0
0
0
0
0
0
0
0
0
0
0
0
0
0
0
0
0
0
0
0
0
0
0
0
0
0
0
0
0
0
0
0
0
0
0
0
0
0
0
0
0
0
0
0
0
0
0
0
0
0
0
0
0
0
0
0
0
0
0
0
0
0
0
0
0
0
0
0
0
0
0
0
0
0
0
0
0
0
0
0
0
0
0
0
0
0
0
0
0
0
0
0
0
0
0
0
0
0
0
0
0
0
0
0
0
0
0
0
0
0
0
0
0
0
0
0
0
0
0
0
0
0
0
0
0
0
0
0
0
0
0
0
0
0
0
0
0
0
0
0
0
0
0
0
0
0
0
0
0
0
0
0
0
0
0
0
0
0
0
0
0
0
0
0
0
0
0
0
0
0
0
0
0
0
0
0
0
0
0
0
0
0
0
0
0
0
0
0
0
0
0
0
0
0
0
0
0
0
0
0
0
0
0
0
0
0
0
0
0
0
0
0
0
0
0
0
0
0
0
0
0
0
0
0
0
0
0
0
0
0
0
0
0
0
0
0
0
0
0
0
0
0
0
0
0
0
0
0
0
0
0
0
0
0
0
0
0
0
0
0
0
0
0
0
0
0
0
0
0
0
0
0
0
0
0
0
0
0
0
0
0
0
0
0
0
0
0
0
0
0
0
0
0
0
0
0
0
0
0
0
0
0
0
0
0
0
0
0
0
0
0
0
0
0
0
0
0
0
0
0
0
0
0
0
0
0
0
0
0
0
0

NodalMass_(kg) 1 343 double
3.15563e-06
1.41304e-05
2.20912e-06
1.71484e-05
8.42e-06
9.09306e-06
9.93033e-06
7.52198e-06
6.81096e-06
5.58223e-06
3.10888e-06
1.07575e-05
4.87011e-06
1.64955e-05
3.0246e-06
8.05984e-06
6.703e-06
1.0877e-05
4.18978e-06
8.16106e-06
6.14143e-06
1.17902e-05
2.23114e-06
4.25176e-06
1.09915e-05
7.41467e-06
4.21871e-06
3.92484e-06
3.08766e-06
1.31268e-05
7.72627e-06
1.65404e-05
1.19037e-05
7.29666e-06
3.81683e-06
1.11001e-05
3.81317e-06
1.39137e-05
6.37414e-06
8.00975e-06
7.6712e-06
1.18847e-05
1.6399e-05
2.78633e-06
8.93599e-06
2.58087e-06
7.57362e-06
4.23241e-06
1.31286e-05
3.80168e-06
2.7746e-06
7.16776e-06
1.21307e-05
5.11765e-06
8.19728e-06
4.58094e-06
2.79503e-06
3.26126e-06
4.12443e-06
2.11915e-06
3.35177e-06
3.61669e-06
1.56838e-05
7.33679e-06
8.24695e-06
5.00369e-06
2.82625e-06
7.20276e-06
3.26815e-06
4.18751e-06
2.02785e-06
2.42152e-06
3.11835e-06
5.97459e-06
5.87101e-06
4.09374e-06
5.45463e-06
2.28825e-06
4.49759e-06
4.38192e-06
4.50892e-06
4.39234e-06
4.27273e-06
5.32031e-06
1.53201e-06
2.38869e-06
2.02885e-06
4.38798e-06
3.17972e-06
3.14298e-06
4.61567e-06
5.87645e-06
8.18088e-06
2.48341e-06
1.53815e-05
3.49683e-06
7.35227e-06
2.01314e-06
2.0408e-06
7.98183e-06
4.41293e-06
7.1389e-06
1.20123e-06
5.03343e-06
1.61257e-06
4.12601e-06
8.73748e-06
4.37849e-06
7.97173e-06
2.13557e-06
3.38137e-06
9.48623e-06
7.40262e-06
1.80226e-06
2.10222e-06
7.98889e-06
1.87983e-06
7.44814e-06
4.19782e-06
2.37156e-06
4.31705e-06
6.06441e-06
4.30905e-06
2.16843e-06
1.8986e-06
1.81294e-06
3.89762e-06
2.44299e-06
1.65628e-06
8.01374e-06
1.64513e-06
2.3931e-06
3.01363e-06
2.99431e-06
1.36541e-06
1.87293e-06
2.09622e-06
1.94762e-06
1.87618e-06
6.37913e-06
4.58628e-06
2.02767e-06
1.61999e-06
2.41284e-06
3.8865e-06
4.44973e-06
2.29839e-06
1.17349e-05
3.11811e-06
1.354e-06
3.45063e-06
1.81846e-06
2.9382e-06
1.37381e-06
2.41464e-06
2.10451e-06
2.63927e-06
2.14166e-06
1.7943e-06
3.19976e-06
1.36989e-06
2.43489e-06
2.08158e-06
1.3601e-06
2.17203e-06
1.89924e-06
3.16996e-06
2.6119e-06
2.37677e-06
1.60225e-06
1.90684e-06
5.49206e-06
1.87878e-06
3.14313e-06
2.97301e-06
1.18454e-06
1.89263e-06
2.04166e-06
2.73572e-06
2.42405e-06
3.23083e-06
3.19752e-06
3.2142e-06
1.94492e-06
1.61196e-06
1.86876e-06
3.22435e-06
2.1114e-06
2.96917e-06
6.15288e-06
2.3097e-06
2.39729e-06
2.38029e-06
2.64508e-06
1.66557e-06
1.82377e-06
2.06583e-06
5.73271e-06
2.08467e-06
2.18324e-06
2.43522e-06
3.1188e-06
3.17316e-06
2.05447e-06
1.9592e-06
3.05718e-06
6.44327e-06
2.08796e-06
2.72615e-06
2.15709e-06
1.86812e-06
2.0028e-06
2.10999e-06
2.88994e-06
2.3222e-06
2.3979e-06
1.97629e-06
6.4127e-06
2.16225e-06
3.29198e-06
2.10223e-06
2.66566e-06
1.94415e-06
2.91865e-06
2.58116e-06
2.11703e-06
2.09534e-06
1.91719e-06
7.06046e-06
2.25203e-06
2.06378e-06
6.28159e-06
2.12147e-06
2.90924e-06
2.12921e-06
6.4487e-06
1.41701e-06
2.0682e-06
6.58062e-06
2.52584e-06
2.39732e-06
7.42191e-07
2.22368e-06
7.06751e-07
7.00657e-07
8.93749e-07
2.53536e-06
2.26535e-06
1.33607e-06
7.84725e-07
2.32303e-06
6.06694e-07
6.68276e-07
6.84307e-07
2.51242e-06
2.31629e-06
7.8367e-07
6.80839e-07
6.22692e-06
6.7471e-07
6.65305e-07
7.01158e-07
1.8232e-06
1.90695e-06
6.86722e-07
7.04792e-07
1.86445e-06
2.28572e-06
6.8045e-07
7.16005e-07
1.82373e-06
6.01079e-07
2.02791e-06
7.4579e-07
5.74423e-07
1.80052e-06
1.454e-06
2.2702e-06
1.80636e-06
2.15356e-06
1.79089e-06
1.79456e-06
6.8231e-07
2.24737e-06
1.45239e-06
1.79556e-06
6.97875e-07
6.24265e-07
6.62717e-07
1.44627e-06
1.40138e-06
2.15258e-06
1.82851e-06
1.3994e-06
1.43932e-06
2.19226e-06
6.97732e-07
1.77726e-06
1.79162e-06
6.54258e-07
7.3397e-07
2.34895e-06
7.10392e-07
6.56982e-07
6.26314e-07
2.18926e-06
6.12493e-07
6.03901e-07
5.92831e-07
5.12031e-07
5.11667e-07
4.9467e-07
4.97016e-07
4.96269e-07
5.33079e-07
4.94191e-07
4.97855e-07
4.86862e-07
4.90626e-07
4.94649e-07
4.94954e-07
4.91922e-07
4.89615e-07
4.96354e-07
4.95189e-07
4.82188e-07
1.10854e-06
5.3299e-07
5.44763e-07
5.36655e-07
5.15417e-07
5.01772e-07
5.53774e-07
5.53774e-07
5.53774e-07
5.53774e-07
5.53774e-07
5.53774e-07
5.50785e-07
5.50785e-07
7.45291e-07
7.11668e-07
4.9897e-07

NodalForce_(N) 3 343 double
3.22119e-08 -6.76199e-10 -4.39983e-09
3.00339e-07 -3.96881e-08 3.41528e-08
0.000391165 0.000414157 0.000440063
3.0091e-07 2.28139e-08 2.19369e-08
4.68501e-07 1.89004e-07 1.12827e-07
3.58778e-07 5.68982e-08 1.26824e-07
3.62103e-07 3.02202e-07 1.28651e-07
2.44819e-07 8.97386e-08 9.29961e-08
3.96146e-07 2.2332e-07 9.39903e-08
1.71825e-07 -1.9515e-09 7.77061e-08
1.19172e-07 9.55598e-08 -2.60431e-09
5.88431e-07 3.16282e-07 1.07424e-07
2.68336e-07 1.99567e-07 3.59461e-08
-2.57691e-08 5.98578e-09 3.05741e-08
8.45775e-08 4.14342e-08 -6.29575e-09
1.30498e-07 1.01713e-07 1.11686e-07
1.24792e-07 4.64834e-08 1.08048e-07
9.92191e-08 -1.09225e-09 5.32406e-08
-0.00131764 0.000724597 -0.00018073
7.06099e-08 -7.36642e-09 1.61266e-08
3.27601e-07 2.24514e-07 4.62534e-08
9.03922e-07 7.20938e-07 1.30051e-07
-0.000555287 -0.0016894 -0.000868734
2.0931e-07 1.27683e-07 -5.10805e-08
6.26736e-07 3.1031e-07 -3.75644e-09
2.32707e-07 1.83854e-08 -1.62779e-08
5.56168e-08 1.85727e-08 8.27273e-09
2.79334e-07 1.63787e-07 -1.18866e-08
6.95658e-08 -1.14769e-08 -2.01057e-08
3.22673e-07 -1.59565e-08 1.5301e-08
2.09654e-07 -5.26832e-08 -1.59469e-08
-1.42151e-07 5.14604e-07 1.60987e-07
4.98834e-07 4.12478e-07 1.32306e-07
9.48141e-08 2.57591e-07 8.05122e-08
-2.46414e-07 2.77424e-07 1.23246e-08
-1.00012e-07 2.63576e-07 1.56609e-07
-2.36185e-07 2.49189e-07 3.33409e-08
-4.10197e-07 4.24795e-07 -2.72469e-08
1.23712e-07 4.7923e-09 5.1612e-08
2.05281e-07 1.24247e-08 3.7388e-08
3.21675e-07 1.51425e-07 8.16637e-08
1.24447e-07 3.95389e-08 1.00012e-07
1.33119e-07 -3.43101e-08 2.99439e-08
8.90541e-09 2.30896e-08 1.30366e-08
1.20651e-07 2.43927e-08 9.19046e-08
0.000958358 0.000781667 -0.000388457
9.8078e-08 -1.52442e-08 1.39731e-08
-0.00020776 0.00105451 1.92749e-05
4.78183e-08 -3.7416e-08 4.85868e-08
-7.23771e-09 -4.65343e-09 -4.47214e-09
1.11359e-08 5.96056e-08 8.7525e-10
1.38899e-07 4.85253e-08 5.51231e-08
2.23709e-07 -2.97438e-08 3.85682e-08
7.8417e-08 -2.68961e-08 3.36184e-08
5.53827e-08 -1.49771e-08 1.89102e-08
3.18602e-08 3.04594e-07 2.76044e-08
0.000809849 0.000600836 0.000697731
5.08641e-08 -6.68137e-09 -8.57821e-09
-0.000120016 -9.042e-06 -0.00035719
-4.56415e-08 1.39073e-07 1.23956e-08
1.42306e-08 -2.99924e-09 -1.24482e-08
2.77065e-07 4.15726e-07 -9.15345e-10
1.11229e-06 1.1159e-06 -5.71521e-08
3.61996e-07 4.10444e-07 4.35579e-08
3.84953e-07 1.47599e-07 7.96206e-08
4.7235e-08 1.25906e-08 7.36398e-09
9.86076e-08 6.30306e-08 1.64691e-08
2.8162e-07 9.7383e-08 5.94803e-08
-1.14161e-07 2.15633e-07 9.38683e-09
4.74688e-07 4.55936e-07 2.12036e-08
4.83342e-08 9.95475e-09 -1.64367e-08
2.44345e-08 2.68852e-08 -5.77071e-09
1.60935e-07 7.32759e-08 1.10662e-08
1.46839e-07 -7.04553e-09 5.627e-08
1.63231e-07 -3.45104e-09 4.44339e-08
0.00145603 0.000594808 0.00033458
2.25531e-07 4.12218e-08 6.1503e-08
2.58463e-08 -6.7723e-10 -3.58964e-09
-3.41238e-09 6.54728e-08 -7.63323e-09
-7.39851e-08 1.33829e-07 2.90214e-08
-1.08387e-08 7.17169e-08 2.39682e-08
1.82538e-08 2.82841e-08 -1.84769e-08
-2.12401e-07 2.91806e-07 2.84821e-08
1.5023e-07 -3.12717e-08 3.65401e-08
3.91156e-05 -0.00110872 0.000399479
4.06078e-08 -1.75394e-09 -4.68829e-09
0.000106729 -0.000702967 0.00043776
-0.000799433 -0.000338807 6.4952e-05
-0.000295547 0.000282241 -0.000163833
5.19548e-08 -4.99145e-09 -1.5915e-08
3.65837e-09 -6.31387e-09 -7.32126e-09
1.13306e-07 -3.74335e-09 7.5722e-08
1.05865e-07 -4.73768e-08 3.41044e-08
1.6042e-07 1.11484e-07 1.33951e-10
1.36682e-06 1.05143e-06 1.92786e-07
3.50817e-07 2.89073e-07 1.49991e-08
5.17486e-07 3.22955e-07 6.39797e-08
9.09806e-08 1.90413e-07 -8.93315e-09
-4.98502e-05 0.000126438 4.88173e-06
1.60883e-08 1.26366e-07 1.27773e-07
3.01768e-07 2.22257e-07 -7.83292e-08
3.40135e-07 1.72354e-07 -3.53092e-08
9.52172e-09 1.11076e-08 9.9639e-09
-2.70041e-07 3.33185e-07 6.56509e-08
4.08957e-08 1.84014e-08 -8.65389e-09
3.76082e-07 2.76492e-07 -2.98807e-08
-1.69859e-08 1.3246e-07 1.01563e-07
5.2147e-07 4.72191e-07 4.6781e-08
5.91749e-07 3.61619e-07 1.26897e-07
-7.77862e-09 -7.29966e-10 -1.82561e-09
-4.11955e-08 6.26331e-08 -7.29443e-08
1.38474e-07 3.37328e-08 1.31767e-08
1.25184e-07 9.06521e-09 -4.07441e-08
-0.000764065 -0.000355606 -0.000817047
1.47044e-07 2.4634e-07 -1.77704e-08
1.89359e-08 -1.00079e-08 2.10373e-08
-1.2422e-07 1.31336e-07 -1.32415e-08
3.56447e-08 2.63953e-07 6.24962e-08
-8.38825e-08 1.35283e-07 -1.89171e-08
2.5706e-07 1.94689e-07 3.77155e-08
3.60625e-07 4.94694e-07 2.70864e-08
3.4495e-07 3.25914e-07 6.67407e-08
4.06927e-08 2.06351e-08 9.26617e-09
0.000245278 0.000185525 0.000137478
1.04525e-08 7.7508e-09 3.51264e-09
-3.58095e-08 1.18242e-07 1.1555e-08
-2.64468e-08 5.78042e-08 -7.15232e-08
-0.000101217 -0.000755607 -0.000454898
7.46042e-09 -2.77232e-09 -2.22636e-09
1.70803e-07 2.19584e-08 8.4383e-08
-8.18087e-08 1.11801e-07 1.71388e-08
-1.1401e-07 1.65495e-07 1.57673e-08
1.91699e-07 1.31466e-07 -2.5346e-11
1.38553e-07 8.84342e-08 2.84732e-10
0.00060605 -0.00115016 -0.000117519
9.55501e-09 4.50006e-09 1.10884e-09
5.13472e-05 7.2829e-05 -0.000226292
2.09452e-07 2.20302e-07 -8.65387e-09
-6.77924e-08 1.20859e-07 -1.09618e-08
-4.44811e-08 2.32841e-07 -1.32078e-08
1.12546e-07 1.88091e-07 3.98171e-09
1.76921e-07 1.44269e-07 4.25587e-09
2.008e-07 1.8011e-07 2.23103e-08
2.18312e-07 2.81644e-07 1.89634e-08
-0.00106868 0.000306128 8.27063e-05
3.99107e-07 2.88954e-07 4.53138e-08
1.68878e-07 9.72242e-08 1.6476e-08
3.01567e-07 4.64499e-07 -1.45573e-08
4.44122e-08 2.46591e-07 -2.08709e-08
-1.35093e-09 2.40549e-08 1.44912e-08
6.53327e-08 3.06502e-08 1.94357e-08
3.0817e-08 8.69417e-09 7.25434e-10
-0.000297485 -0.000736655 -7.98142e-05
7.09005e-09 9.0776e-08 1.08154e-08
-9.15835e-08 1.07369e-07 1.87971e-08
-2.83991e-08 7.31698e-08 -4.69563e-09
0.000517214 -0.000863751 0.000264291
-0.00149174 0.000137288 0.000518404
3.88569e-08 2.85944e-08 -1.92904e-09
1.81237e-07 2.87056e-07 2.85006e-08
8.72116e-08 5.81816e-08 1.46743e-08
-2.07074e-09 1.82273e-08 4.99011e-09
1.50545e-07 1.56062e-07 -4.85127e-08
1.70873e-08 9.68621e-09 -1.68029e-09
-5.14425e-08 1.43184e-07 1.13613e-08
-9.51106e-09 8.00361e-08 3.2105e-11
1.63284e-07 1.34911e-07 -6.7789e-08
5.55828e-08 -1.7475e-08 -2.4347e-08
-8.82304e-08 7.74324e-08 -5.22759e-08
-8.39331e-08 8.42531e-08 -1.09745e-08
1.32402e-08 7.60462e-09 -3.55195e-08
3.45696e-08 7.07033e-08 3.90699e-08
1.91612e-07 1.82064e-07 -2.08115e-08
1.84117e-08 -1.35673e-08 -8.86071e-09
4.65556e-08 -1.03863e-08 -7.89208e-09
2.40081e-08 -1.26807e-09 -3.31634e-09
-6.3848e-08 9.9761e-08 1.17982e-08
4.98655e-08 3.81695e-08 4.91119e-09
-2.008e-08 1.84093e-07 -3.56244e-09
0.000307627 -0.000722042 -0.000609865
1.37383e-07 2.52254e-07 1.80849e-08
7.50719e-08 1.82598e-07 -8.65536e-08
1.22035e-07 3.14107e-07 -4.42483e-08
0.000313163 -0.000831879 0.000427389
1.25807e-08 1.90724e-09 -3.53436e-09
2.15138e-07 1.75524e-07 2.34424e-08
2.54202e-07 2.1845e-07 8.1022e-09
1.08947e-07 1.19113e-07 3.42545e-09
-1.80161e-08 8.80116e-08 5.10932e-08
1.00063e-07 1.74163e-08 9.1685e-08
-1.58245e-08 6.83626e-08 3.29225e-08
-6.76904e-08 1.05172e-07 4.03132e-08
2.47566e-08 -1.01224e-08 -6.94422e-09
6.34443e-08 -3.14072e-09 -3.44001e-08
7.68231e-08 3.89817e-08 1.28681e-08
8.45134e-08 5.0254e-08 1.42089e-08
1.7544e-08 1.68647e-07 -3.92585e-08
1.29526e-07 1.45294e-08 -5.61906e-09
4.51708e-08 1.60761e-07 1.82089e-09
2.89375e-08 2.75261e-08 -4.86539e-08
-1.72195e-07 1.64728e-07 2.55833e-09
0.000317613 -0.000436819 0.000206372
3.8487e-08 6.52893e-09 6.0035e-09
-2.0366e-05 0.000495039 0.000151964
2.03483e-08 1.81303e-08 -2.46748e-08
2.41929e-08 5.72589e-08 4.75872e-10
2.09083e-07 2.42104e-09 1.64199e-08
5.78785e-08 6.40324e-08 -4.69448e-08
2.405e-07 1.69217e-07 3.19044e-08
1.92833e-07 1.34221e-07 3.46341e-08
2.78421e-08 4.08738e-09 1.93198e-09
1.00995e-07 1.51713e-07 -5.54276e-08
6.23418e-08 1.56642e-07 1.71553e-08
-1.03486e-07 1.3355e-07 4.45045e-08
9.53838e-08 4.28965e-08 -3.15318e-09
1.10015e-07 4.50569e-08 -1.42369e-09
1.44788e-07 1.97762e-07 9.53129e-09
8.00183e-08 -2.02807e-08 3.23985e-08
7.18366e-08 3.02422e-08 -4.04232e-08
-2.13338e-08 1.23053e-07 -9.00646e-08
-1.87699e-08 5.54767e-08 2.41321e-08
7.70055e-08 2.02206e-07 1.50825e-08
-1.02781e-08 5.24098e-08 1.38515e-08
3.09066e-07 2.45095e-07 3.61075e-08
3.63688e-08 2.24172e-08 1.72441e-08
-0.000768256 -0.000165948 0.000246411
1.83036e-08 3.13567e-09 -6.93839e-09
1.59594e-07 1.11555e-07 2.51976e-08
1.97032e-07 -3.13092e-08 6.86104e-08
7.56819e-09 4.25674e-08 2.90424e-08
1.45753e-07 8.93679e-08 2.59644e-08
1.21107e-07 -3.14324e-08 5.73791e-08
0.000773653 -0.000822645 2.33975e-06
-0.000258205 -5.50133e-05 0.000210529
4.06247e-08 -9.49683e-09 -3.70493e-08
1.61408e-07 -2.35317e-08 7.05757e-08
1.22708e-07 8.31271e-08 3.98493e-09
3.14647e-10 1.35442e-07 9.24337e-09
1.53596e-07 -3.91373e-08 6.58237e-08
6.18649e-08 1.27041e-08 -4.19725e-09
-4.39199e-08 1.63203e-07 -3.52203e-08
0.000405088 -8.66916e-06 0.000311808
-8.87227e-08 9.08483e-08 -5.95887e-08
3.81331e-08 2.78451e-08 -1.19694e-08
0.000614948 -0.000551372 -6.57832e-06
-8.37303e-09 2.71448e-08 -9.18616e-09
0.00107313 -0.000234645 -0.000236369
-1.23162e-07 1.45559e-07 -3.90859e-08
-5.97572e-08 8.72421e-08 -4.52517e-08
7.51803e-05 -0.000348851 5.78339e-05
1.03332e-07 4.8291e-08 -3.46084e-08
-0.000257425 -0.000295821 -0.000249375
7.18655e-08 9.76418e-08 -3.39393e-09
-5.54921e-08 6.64039e-08 6.47993e-09
4.38695e-08 -4.02424e-09 -3.37838e-08
1.25393e-07 2.13496e-07 6.6119e-09
6.06222e-08 4.98181e-08 -1.85332e-08
-0.000752885 -0.000793877 -0.000104359
1.68799e-07 -5.85481e-09 6.56022e-08
4.5383e-08 3.69877e-08 1.17866e-09
7.99484e-08 9.56079e-08 5.83917e-09
-0.00064072 -0.000599187 -2.95728e-05
-1.48752e-07 1.29578e-07 -2.19047e-08
-1.53314e-07 1.42361e-07 -3.30578e-08
7.92348e-08 9.91757e-08 2.34003e-09
-8.91334e-09 5.22855e-08 -2.4614e-08
2.03318e-08 3.42989e-09 -2.82719e-09
0.000176461 0.000755783 -0.000338083
-0.000148271 0.000132258 0.000123298
9.52633e-06 -0.000248798 9.11073e-05
-1.20118e-07 9.80091e-08 -4.56338e-08
-5.73339e-08 5.79153e-08 3.01059e-10
1.62007e-08 3.79411e-08 2.02497e-08
-8.61311e-10 4.91341e-08 -4.94478e-09
3.01541e-05 -0.000197874 0.000112822
0.000108867 0.000589535 0.000171466
6.34655e-09 7.77414e-09 3.9097e-09
-5.30316e-09 2.66408e-09 -1.07132e-09
-9.08787e-08 1.31794e-07 6.66437e-09
1.06339e-08 -1.24067e-09 -2.15813e-09
2.61029e-06 0.000487948 -0.000175816
-8.51392e-08 1.31653e-07 4.49692e-09
-2.55862e-08 3.02323e-08 -1.06811e-08
1.51337e-07 2.78643e-07 -4.25564e-08
4.31729e-09 4.28086e-09 4.67985e-10
-5.00595e-08 1.01436e-07 -4.89339e-09