# vtk DataFile Version 4.2
vtk output
ASCII
DATASET UNSTRUCTURED_GRID

POINTS 343 double
0.00112265 0.00419493 8.76218e-08
0.00217126 0.00498253 0.0021754
0 0.00419538 0.00112517
0.00193032 0.00195449 0.00194218
0.00516989 0.00240727 0.0050326
0.00517206 0.00383029 0.00639795
0.00762248 0.00477611 0.00499973
0.00622478 0.00485081 0.00369231
0.00683608 0.00328922 0.00691466
0.00499099 0.00499272 0.00500017
0.00418012 0.00111852 0.00999944
0.00528091 0.00208071 0.00790454
0.0041905 -6.97013e-06 0.00831751
0.00201228 0.0020025 0.00803329
0.00428567 0.00253312 0.00999948
0.00695561 0.00644722 0.00694763
0.00641329 0.00618277 0.00518364
0.00226068 0.00218466 0.00514619
0 0.00143586 0.00417514
0.00159465 0.00346615 0.00403707
0.00683784 0.00319461 0.00316209
0.00774595 0.00221396 0.00506473
0 0.00270918 0.00154168
0.00415935 0.00142894 4.01769e-07
0.00500872 0.00218827 0.00219832
0.00396302 0.00352685 0.00160335
0.00134557 -5.59913e-07 0.00406005
0.00418454 -7.26045e-06 0.0016885
0.00262658 0.00695167 2.19269e-07
0.00193837 0.00805275 0.00194495
0.00408792 0.00624814 0.00164536
0.00800124 0.00798654 0.00799812
0.00796399 0.00481625 0.00802314
0.00838753 0.00608028 0.0059488
0.00999763 0.00882652 0.00419297
0.00757604 0.00763617 0.00496441
0.00856547 0.00998084 0.00416735
0.00797614 0.00797171 0.00201668
0.00353599 0.00303664 0.00695972
0.00443705 0.00366205 0.00832434
0.0038927 0.00160082 0.00596923
0.00500464 0.00766844 0.00767707
0.0019894 0.00800788 0.0079897
0.00282697 0.0099974 0.00712729
0.00391618 0.00839962 0.00595805
0 0.00695361 0.00262895
0.00164652 0.00623926 0.00408793
0 0.0040177 0.00850214
0.00231485 0.00498572 0.00766159
0.00143311 0.00417448 0.00999997
0.00717322 0.00711847 0.00999854
0.00611722 0.00597098 0.00841788
0.00205185 0.00794143 0.0047419
0.00304353 0.0069429 0.00646785
0.00158686 0.00607835 0.00592605
0.00998769 0.00578464 0.00831572
0 0.00718191 0.00711644
0.00158475 0.00577345 6.71197e-08
0 0.00577432 0.00158701
0.00999235 0.00715835 0.00711514
0.00286698 0.00334934 0.00999982
0.00997094 0.00141036 0.00417503
0.00803752 0.00194383 0.00197961
0.00838968 0.0035029 0.00399897
0.00372633 0.00164829 0.00412851
0.00150921 0.00999969 0.00581506
0.00281001 -3.35267e-06 0.00712782
0.00610923 0.00417175 0.00837636
0.00999193 0.00725042 0.00419527
0.0085299 -2.08788e-05 0.00416813
0.0033423 0.00286981 2.77642e-07
0.0027 0.00153897 0.00999984
0.00281913 -3.68951e-06 0.00283214
0.00479747 0.0051942 0.00755454
0.00315846 0.00314634 0.0031675
0 0.00849157 0.00581511
0.00486516 0.00366974 0.00378649
0.00153726 0.00270866 5.82479e-08
0.00579818 0.0083162 0.00999882
0.00598322 0.00998969 0.00850538
0.00421307 0.0099943 0.00831758
0.00401682 0.00849845 0.0099992
0.00999673 0.0084678 0.00581408
0.00314751 0.00683356 0.00315101
0 0.00748929 0.00137438
0.00137351 0.00748899 2.64256e-08
0 0.00287343 0.00335182
0 0.00580816 0.00831736
0 0.00429792 0.00253898
0.0025339 0.00429595 2.34368e-07
0.00143367 0.00581917 0.00999997
0.0051749 0.00646874 0.0064004
0.00360285 0.00650939 0.00823402
0.00693199 0.00261363 0.00999878
0.00799961 0.00194063 0.0080348
0.00694348 -1.55403e-05 0.00308233
0.00600169 0.00165306 0.00361311
0.00997584 0.00284865 0.00335189
0 0.00140616 0.00256446
0.00637232 0.00821705 0.00642078
0.00579809 0.00142396 7.46392e-07
0.00602285 0.00354144 0.00160362
0.00315668 0.00999662 0.00582527
0.00856051 0.009981 0.00583251
0.00255461 0.00140318 2.56453e-07
0.00595166 -1.23595e-05 0.00149493
0.00627977 0.00827708 0.00361737
0.00852503 -2.07227e-05 0.00583301
0.00618715 0.00166118 0.00636518
0.0014022 0.00256406 0.01
0.00711119 0.00716825 3.58368e-07
0.00516506 0.00768249 0.00216912
0.00593651 0.00608407 0.00160219
0 0.00686719 0.00578184
0.00997043 0.00138049 0.0025648
0.00177223 0.00360989 0.0064079
0.009996 0.00846285 0.00262352
0.00840292 0.00617124 0.00413266
0.00598236 0.00998908 0.00149401
0.00694288 -1.52967e-05 0.00692617
0.00997137 0.00141016 0.00581903
0.00837936 0.00355482 0.00606043
0.00150203 -7.19902e-07 0.00581522
0 0.0013659 0.00748679
0.00136379 -6.10521e-07 0.00752893
0.00999086 0.00684357 0.00578089
0.00581511 0.00848157 2.92342e-07
0 0.0075208 0.00859127
0.00136495 0.00748642 0.00999991
0.00423077 0.00820046 0.00362839
0.00859374 0.00998089 0.00751099
0.00999773 0.00860659 0.00752485
0.0057551 0.00157621 0.00999902
0.00724479 0.00417408 0.00999866
0 0.0057735 0.00666667
0.00137013 0.00999964 0.00752894
0 0.00863025 0.00752641
0.00855617 -2.12483e-05 0.00250789
0.00999041 0.00692971 0.00262886
0.00845019 0.00632377 0.00216308
0.00849884 0.00580578 0.00999832
0.00746571 0.00135785 0.00999857
0.00855816 -2.09196e-05 0.00751112
0.00997152 0.00134062 0.00748552
0 0.00143551 0.00581971
0.00595286 -1.19717e-05 0.00850527
0.00419431 -7.30761e-06 0.00340019
0.00792042 0.00469101 0.00203478
0.00998074 0.00427365 0.00253911
0.00423076 0.00999409 0.00666637
0.00283637 0.00999744 0.00283203
0.00130727 -6.04359e-07 0.00241833
0 0.00727418 0.00419576
0.00998709 0.00574992 0.0066655
0.00697642 0.00998606 0.00308154
0.00750655 0.00862203 0.00999845
0 0.00574334 0.00336387
0 0.0043297 0.00416652
0.00686092 0.00577193 0.00999876
0.00997725 0.00299774 0.00691418
0.00420678 -7.1344e-06 0.00666667
0.00247986 0.00999779 0.00861146
0.00746103 0.00134886 7.93346e-07
0.00576929 0.0066579 0.00999887
0.00999399 0.00749733 0.00858945
0.00860367 0.0075352 0.00999823
0.00689608 0.00300815 7.9675e-07
0.00335922 0.00574048 3.71456e-07
0.00752543 0.00861476 2.34725e-07
0.00751824 0.00998398 0.00138741
0.00577705 0.00685789 3.61191e-07
0.00696782 0.00635796 0.00303349
0.00748429 -1.76899e-05 0.00138837
0.00287993 0.00499714 0.00999974
0.00432475 0.00582874 0.00999929
0.00432089 0.00416163 0.00999936
0.00751965 0.00998452 0.00861479
0.0024652 -2.84251e-06 0.00861163
0.00998611 0.00571949 0.00336374
0 0.00302218 0.00691532
0.0099812 0.0039938 0.0085005
0.00848349 0.00399846 6.68172e-07
0.00997485 0.00268408 0.00154217
0 0.00244495 0.00857025
0.00244543 0.00856824 0.00999962
0.00748582 -1.72759e-05 0.00861466
0.00846566 0.00260472 0.00999832
0.00883466 0.00417413 0.00999823
0.00567431 0.00999029 0.00583301
0.00518439 0.0075761 0.00503229
0.00564641 0.00999024 0.0042151
0.00697574 0.00998637 0.00692587
0.00302011 0.00691335 0.00999955
0.00415769 0.0043248 5.37791e-07
0.00282205 -3.82869e-06 0.00440485
0.00313828 -4.26774e-06 0.00582564
0.00998008 0.00417087 0.0011256
0.00363789 0.00833336 0.00158846
0.00998126 0.00430556 0.00416626
0.00665713 0.00576138 5.9276e-07
0.00859188 0.00998053 0.00250693
0 0.00848692 0.00262374
0.00135202 0.00999966 0.00405991
0 0.00885053 0.00419359
0.00419483 0.0088446 3.00508e-07
0.00420826 0.0099939 0.00168788
0.00499013 0.00478468 0.00237916
0.00720486 0.00450728 7.03017e-07
0.00561742 -1.13523e-05 0.00421582
0.00564538 -1.12988e-05 0.0058334
0.00131357 0.00999968 0.00241808
0.00854591 0.0024248 7.61684e-07
0.0099827 0.0044979 0.00721829
0.00711872 0.00998578 0.00499983
0.00572953 0.0033546 0.00999905
0.00244638 -2.97626e-06 0.0013568
0.00997557 0.00242023 0.00856866
0.00239173 0.00478981 0.005
0.00582051 0.00432033 7.17346e-07
0.00830545 0.00579008 4.56576e-07
0.00548334 0.00999099 0.00721998
0.00998164 0.00430613 0.00583252
0.00540654 0.00999081 0.00277559
0.00708547 -1.58314e-05 0.00500046
0.00283878 0.00999745 0.00440444
0 0.00452174 0.00721958
0.00451911 0.0072147 0.00999917
0.00545491 -1.05734e-05 0.00721995
0.00359805 0.00507056 0.00359668
0.00425558 0.00999403 0.0050081
0.00423097 -7.28716e-06 0.00500868
0.00366606 0.00521354 0.00617462
0 0.005744 0.00499998
0 0.00433013 0.00583333
0.0049929 0.00573737 5.77664e-07
0.00498016 0.00633256 0.00355394
0.00537803 -1.0725e-05 0.00277641
0.00998654 0.00572031 0.00499934
0.00368771 0.00640447 0.00484398
0.005735 0.00499155 0.009999
0.00998584 0.00575027 0.00158724
0 0.00666667 0
0.00858513 0.00750186 2.1452e-07
0.00331739 -5.63168e-06 8.75692e-07
0 0.01 0.00666667
0.00500475 0.00999205 0.00999921
0 0.00288419 0.00499914
0.0099921 0.00746526 0.00137451
0.00998886 0.00664256 1.79859e-07
0 0.005 0.01
0.00498416 0.00287621 5.85261e-07
0 0.005 0
0.00996561 -2.62179e-05 0.00333359
0.0100025 0.00997575 0.00666526
0.00419328 0.00726917 3.63796e-07
0.00997623 0.0028596 0.00499869
0.00497744 -1.00758e-05 1.02534e-06
0 0 0.00666667
0.00379049 0.00361281 0.00522641
0.0049789 -9.63288e-06 0.00999889
0.00996644 -2.59848e-05 0.0066657
0 0 0.005
0.00878268 0.00997967 0.00122006
0.00999678 0.00875556 0.00122008
0.009966 -2.60582e-05 0.00499968
0.00998282 0.00497556 3.90405e-07
0.00121576 0.00121929 5.78894e-09
0 0.00122008 0.00122008
0 0.00333333 0.01
0 0.00666667 0.01
0.00877809 0.00875989 5.98039e-08
0.0100017 0.00997543 0.00333277
0.00421876 0.00999399 0.00339962
0.00999124 0.0066433 0.00999796
0 0.00333333 0
0 0.00122008 0.00877992
0.00121499 -7.68091e-07 0.00877974
0.00121607 0.00121954 0.0100001
0.00878436 0.00998018 0.00877843
0.0012198 0.00877946 0.00999991
0 0.00877992 0.00877992
0.00999867 0.0087562 0.00877807
0.00667075 0.00998667 -2.89985e-08
0.00996941 0.00119415 0.00122075
0.00122075 0.00999949 0.00878011
0.00878042 0.00876057 0.00999822
0.00998517 0.00497636 0.00999799
0 0 0.00333333
0.00663838 -1.50009e-05 1.1662e-06
0.00874683 -2.21233e-05 0.0012211
0.00120623 -7.8807e-07 0.00121208
0 0.00877992 0.00122008
0.00121997 0.00877942 1.05308e-07
0.00121225 0.00999953 0.00121146
0.00997126 0.00119466 0.00877816
0.00875321 0.00119893 0.00999817
0.00664039 -1.45729e-05 0.00999835
0.00875088 0.00119841 8.58008e-07
0.00874866 -2.16868e-05 0.00877823
0.00997684 0.00330841 5.62479e-07
0.003337 0.00999578 0.00999977
0.00246158 0.00999796 0.00135641
0.00667236 0.0099873 0.00999888
0.00997914 0.00330921 0.00999798
0 0.01 0.005
0.00262402 0.00848472 2.33887e-07
0.010002 0.0099756 0.00499908
0 0.01 0.00333333
0 0.00166667 0
0.00996521 -2.64392e-05 0.0016674
0 0.00166667 0.01
0 0.00833333 0
0.00999498 0.00830898 -1.80486e-08
0.00996686 -2.60484e-05 0.00833159
0.0100013 0.00997524 0.00166647
0.0100029 0.00997577 0.0083316
0.00166848 0.0099986 0.00999995
0 0.01 0.00833333
0.00833638 0.00998107 -4.86685e-08
0.00830101 -2.08008e-05 1.04791e-06
0.00830331 -2.03565e-05 0.00999806
0.00833839 0.0099816 0.00999839
0 0 0.00833333
0.00999737 0.00830972 0.00999792
0.00165837 -1.95329e-06 2.73711e-07
0 0 0.00166667
0.00333719 0.00999593 1.75164e-07
0.00997316 0.00164137 0.00999793
0.00997081 0.00164081 6.82055e-07
0.00165911 -1.61817e-06 0.01
0.00166849 0.00999887 1.03879e-07
0 0.01 0.00166667
0.0100034 0.00997579 0.00999799
0 0 0.01
0.010001 0.00997507 -2.52529e-07
0.00996723 -2.61539e-05 0.00999769
0 0.01 0.01
0.00996484 -2.66217e-05 9.01753e-07
0 0.01 0
0 0 0
0.00500425 0.00999159 1.03347e-07
0.00331844 -5.08979e-06 0.00999932
0 0.00833333 0.01

CELLS 343 686
1 0
1 1
1 2
1 3
1 4
1 5
1 6
1 7
1 8
1 9
1 10
1 11
1 12
1 13
1 14
1 15
1 16
1 17
1 18
1 19
1 20
1 21
1 22
1 23
1 24
1 25
1 26
1 27
1 28
1 29
1 30
1 31
1 32
1 33
1 34
1 35
1 36
1 37
1 38
1 39
1 40
1 41
1 42
1 43
1 44
1 45
1 46
1 47
1 48
1 49
1 50
1 51
1 52
1 53
1 54
1 55
1 56
1 57
1 58
1 59
1 60
1 61
1 62
1 63
1 64
1 65
1 66
1 67
1 68
1 69
1 70
1 71
1 72
1 73
1 74
1 75
1 76
1 77
1 78
1 79
1 80
1 81
1 82
1 83
1 84
1 85
1 86
1 87
1 88
1 89
1 90
1 91
1 92
1 93
1 94
1 95
1 96
1 97
1 98
1 99
1 100
1 101
1 102
1 103
1 104
1 105
1 106
1 107
1 108
1 109
1 110
1 111
1 112
1 113
1 114
1 115
1 116
1 117
1 118
1 119
1 120
1 121
1 122
1 123
1 124
1 125
1 126
1 127
1 128
1 129
1 130
1 131
1 132
1 133
1 134
1 135
1 136
1 137
1 138
1 139
1 140
1 141
1 142
1 143
1 144
1 145
1 146
1 147
1 148
1 149
1 150
1 151
1 152
1 153
1 154
1 155
1 156
1 157
1 158
1 159
1 160
1 161
1 162
1 163
1 164
1 165
1 166
1 167
1 168
1 169
1 170
1 171
1 172
1 173
1 174
1 175
1 176
1 177
1 178
1 179
1 180
1 181
1 182
1 183
1 184
1 185
1 186
1 187
1 188
1 189
1 190
1 191
1 192
1 193
1 194
1 195
1 196
1 197
1 198
1 199
1 200
1 201
1 202
1 203
1 204
1 205
1 206
1 207
1 208
1 209
1 210
1 211
1 212
1 213
1 214
1 215
1 216
1 217
1 218
1 219
1 220
1 221
1 222
1 223
1 224
1 225
1 226
1 227
1 228
1 229
1 230
1 231
1 232
1 233
1 234
1 235
1 236
1 237
1 238
1 239
1 240
1 241
1 242
1 243
1 244
1 245
1 246
1 247
1 248
1 249
1 250
1 251
1 252
1 253
1 254
1 255
1 256
1 257
1 258
1 259
1 260
1 261
1 262
1 263
1 264
1 265
1 266
1 267
1 268
1 269
1 270
1 271
1 272
1 273
1 274
1 275
1 276
1 277
1 278
1 279
1 280
1 281
1 282
1 283
1 284
1 285
1 286
1 287
1 288
1 289
1 290
1 291
1 292
1 293
1 294
1 295
1 296
1 297
1 298
1 299
1 300
1 301
1 302
1 303
1 304
1 305
1 306
1 307
1 308
1 309
1 310
1 311
1 312
1 313
1 314
1 315
1 316
1 317
1 318
1 319
1 320
1 321
1 322
1 323
1 324
1 325
1 326
1 327
1 328
1 329
1 330
1 331
1 332
1 333
1 334
1 335
1 336
1 337
1 338
1 339
1 340
1 341
1 342

CELL_TYPES 343
1
1
1
1
1
1
1
1
1
1
1
1
1
1
1
1
1
1
1
1
1
1
1
1
1
1
1
1
1
1
1
1
1
1
1
1
1
1
1
1
1
1
1
1
1
1
1
1
1
1
1
1
1
1
1
1
1
1
1
1
1
1
1
1
1
1
1
1
1
1
1
1
1
1
1
1
1
1
1
1
1
1
1
1
1
1
1
1
1
1
1
1
1
1
1
1
1
1
1
1
1
1
1
1
1
1
1
1
1
1
1
1
1
1
1
1
1
1
1
1
1
1
1
1
1
1
1
1
1
1
1
1
1
1
1
1
1
1
1
1
1
1
1
1
1
1
1
1
1
1
1
1
1
1
1
1
1
1
1
1
1
1
1
1
1
1
1
1
1
1
1
1
1
1
1
1
1
1
1
1
1
1
1
1
1
1
1
1
1
1
1
1
1
1
1
1
1
1
1
1
1
1
1
1
1
1
1
1
1
1
1
1
1
1
1
1
1
1
1
1
1
1
1
1
1
1
1
1
1
1
1
1
1
1
1
1
1
1
1
1
1
1
1
1
1
1
1
1
1
1
1
1
1
1
1
1
1
1
1
1
1
1
1
1
1
1
1
1
1
1
1
1
1
1
1
1
1
1
1
1
1
1
1
1
1
1
1
1
1
1
1
1
1
1
1
1
1
1
1
1
1
1
1
1
1
1
1
1
1
1
1
1
1
1
1
1
1
1
1
1
1
1
1
1
1
1
1
1
1
1
1
1
1
1
1
1
1
1
1
1
1
1
1

POINT_DATA 343
FIELD FieldData 8

NodeID_(#) 1 343 int
0
1
2
3
4
5
6
7
8
9
10
11
12
13
14
15
16
17
18
19
20
21
22
23
24
25
26
27
28
29
30
31
32
33
34
35
36
37
38
39
40
41
42
43
44
45
46
47
48
49
50
51
52
53
54
55
56
57
58
59
60
61
62
63
64
65
66
67
68
69
70
71
72
73
74
75
76
77
78
79
80
81
82
83
84
85
86
87
88
89
90
91
92
93
94
95
96
97
98
99
100
101
102
103
104
105
106
107
108
109
110
111
112
113
114
115
116
117
118
119
120
121
122
123
124
125
126
127
128
129
130
131
132
133
134
135
136
137
138
139
140
141
142
143
144
145
146
147
148
149
150
151
152
153
154
155
156
157
158
159
160
161
162
163
164
165
166
167
168
169
170
171
172
173
174
175
176
177
178
179
180
181
182
183
184
185
186
187
188
189
190
191
192
193
194
195
196
197
198
199
200
201
202
203
204
205
206
207
208
209
210
211
212
213
214
215
216
217
218
219
220
221
222
223
224
225
226
227
228
229
230
231
232
233
234
235
236
237
238
239
240
241
242
243
244
245
246
247
248
249
250
251
252
253
254
255
256
257
258
259
260
261
262
263
264
265
266
267
268
269
270
271
272
273
274
275
276
277
278
279
280
281
282
283
284
285
286
287
288
289
290
291
292
293
294
295
296
297
298
299
300
301
302
303
304
305
306
307
308
309
310
311
312
313
314
315
316
317
318
319
320
321
322
323
324
325
326
327
328
329
330
331
332
333
334
335
336
337
338
339
340
341
342

Component_(#) 1 343 int
0
0
0
0
0
0
0
0
0
0
0
0
0
0
0
0
0
0
0
0
0
0
0
0
0
0
0
0
0
0
0
0
0
0
0
0
0
0
0
0
0
0
0
0
0
0
0
0
0
0
0
0
0
0
0
0
0
0
0
0
0
0
0
0
0
0
0
0
0
0
0
0
0
0
0
0
0
0
0
0
0
0
0
0
0
0
0
0
0
0
0
0
0
0
0
0
0
0
0
0
0
0
0
0
0
0
0
0
0
0
0
0
0
0
0
0
0
0
0
0
0
0
0
0
0
0
0
0
0
0
0
0
0
0
0
0
0
0
0
0
0
0
0
0
0
0
0
0
0
0
0
0
0
0
0
0
0
0
0
0
0
0
0
0
0
0
0
0
0
0
0
0
0
0
0
0
0
0
0
0
0
0
0
0
0
0
0
0
0
0
0
0
0
0
0
0
0
0
0
0
0
0
0
0
0
0
0
0
0
0
0
0
0
0
0
0
0
0
0
0
0
0
0
0
0
0
0
0
0
0
0
0
0
0
0
0
0
0
0
0
0
0
0
0
0
0
0
0
0
0
0
0
0
0
0
0
0
0
0
0
0
0
0
0
0
0
0
0
0
0
0
0
0
0
0
0
0
0
0
0
0
0
0
0
0
0
0
0
0
0
0
0
0
0
0
0
0
0
0
0
0
0
0
0
0
0
0
0
0
0
0
0
0
0
0
0
0
0
0
0
0
0
0
0
0
0
0
0
0
0
0
0
0
0
0
0
0
0
0
0
0
0
0

NodalMass_(kg) 1 343 double
3.15563e-06
1.41304e-05
2.20912e-06
1.71484e-05
8.42e-06
9.09306e-06
9.93033e-06
7.52198e-06
6.81096e-06
5.58223e-06
3.10888e-06
1.07575e-05
4.87011e-06
1.64955e-05
3.0246e-06
8.05984e-06
6.703e-06
1.0877e-05
4.18978e-06
8.16106e-06
6.14143e-06
1.17902e-05
2.23114e-06
4.25176e-06
1.09915e-05
7.41467e-06
4.21871e-06
3.92484e-06
3.08766e-06
1.31268e-05
7.72627e-06
1.65404e-05
1.19037e-05
7.29666e-06
3.81683e-06
1.11001e-05
3.81317e-06
1.39137e-05
6.37414e-06
8.00975e-06
7.6712e-06
1.18847e-05
1.6399e-05
2.78633e-06
8.93599e-06
2.58087e-06
7.57362e-06
4.23241e-06
1.31286e-05
3.80168e-06
2.7746e-06
7.16776e-06
1.21307e-05
5.11765e-06
8.19728e-06
4.58094e-06
2.79503e-06
3.26126e-06
4.12443e-06
2.11915e-06
3.35177e-06
3.61669e-06
1.56838e-05
7.33679e-06
8.24695e-06
5.00369e-06
2.82625e-06
7.20276e-06
3.26815e-06
4.18751e-06
2.02785e-06
2.42152e-06
3.11835e-06
5.97459e-06
5.87101e-06
4.09374e-06
5.45463e-06
2.28825e-06
4.49759e-06
4.38192e-06
4.50892e-06
4.39234e-06
4.27273e-06
5.32031e-06
1.53201e-06
2.38869e-06
2.02885e-06
4.38798e-06
3.17972e-06
3.14298e-06
4.61567e-06
5.87645e-06
8.18088e-06
2.48341e-06
1.53815e-05
3.49683e-06
7.35227e-06
2.01314e-06
2.0408e-06
7.98183e-06
4.41293e-06
7.1389e-06
1.20123e-06
5.03343e-06
1.61257e-06
4.12601e-06
8.73748e-06
4.37849e-06
7.97173e-06
2.13557e-06
3.38137e-06
9.48623e-06
7.40262e-06
1.80226e-06
2.10222e-06
7.98889e-06
1.87983e-06
7.44814e-06
4.19782e-06
2.37156e-06
4.31705e-06
6.06441e-06
4.30905e-06
2.16843e-06
1.8986e-06
1.81294e-06
3.89762e-06
2.44299e-06
1.65628e-06
8.01374e-06
1.64513e-06
2.3931e-06
3.01363e-06
2.99431e-06
1.36541e-06
1.87293e-06
2.09622e-06
1.94762e-06
1.87618e-06
6.37913e-06
4.58628e-06
2.02767e-06
1.61999e-06
2.41284e-06
3.8865e-06
4.44973e-06
2.29839e-06
1.17349e-05
3.11811e-06
1.354e-06
3.45063e-06
1.81846e-06
2.9382e-06
1.37381e-06
2.41464e-06
2.10451e-06
2.63927e-06
2.14166e-06
1.7943e-06
3.19976e-06
1.36989e-06
2.43489e-06
2.08158e-06
1.3601e-06
2.17203e-06
1.89924e-06
3.16996e-06
2.6119e-06
2.37677e-06
1.60225e-06
1.90684e-06
5.49206e-06
1.87878e-06
3.14313e-06
2.97301e-06
1.18454e-06
1.89263e-06
2.04166e-06
2.73572e-06
2.42405e-06
3.23083e-06
3.19752e-06
3.2142e-06
1.94492e-06
1.61196e-06
1.86876e-06
3.22435e-06
2.1114e-06
2.96917e-06
6.15288e-06
2.3097e-06
2.39729e-06
2.38029e-06
2.64508e-06
1.66557e-06
1.82377e-06
2.06583e-06
5.73271e-06
2.08467e-06
2.18324e-06
2.43522e-06
3.1188e-06
3.17316e-06
2.05447e-06
1.9592e-06
3.05718e-06
6.44327e-06
2.08796e-06
2.72615e-06
2.15709e-06
1.86812e-06
2.0028e-06
2.10999e-06
2.88994e-06
2.3222e-06
2.3979e-06
1.97629e-06
6.4127e-06
2.16225e-06
3.29198e-06
2.10223e-06
2.66566e-06
1.94415e-06
2.91865e-06
2.58116e-06
2.11703e-06
2.09534e-06
1.91719e-06
7.06046e-06
2.25203e-06
2.06378e-06
6.28159e-06
2.12147e-06
2.90924e-06
2.12921e-06
6.4487e-06
1.41701e-06
2.0682e-06
6.58062e-06
2.52584e-06
2.39732e-06
7.42191e-07
2.22368e-06
7.06751e-07
7.00657e-07
8.93749e-07
2.53536e-06
2.26535e-06
1.33607e-06
7.84725e-07
2.32303e-06
6.06694e-07
6.68276e-07
6.84307e-07
2.51242e-06
2.31629e-06
7.8367e-07
6.80839e-07
6.22692e-06
6.7471e-07
6.65305e-07
7.01158e-07
1.8232e-06
1.90695e-06
6.86722e-07
7.04792e-07
1.86445e-06
2.28572e-06
6.8045e-07
7.16005e-07
1.82373e-06
6.01079e-07
2.02791e-06
7.4579e-07
5.74423e-07
1.80052e-06
1.454e-06
2.2702e-06
1.80636e-06
2.15356e-06
1.79089e-06
1.79456e-06
6.8231e-07
2.24737e-06
1.45239e-06
1.79556e-06
6.97875e-07
6.24265e-07
6.62717e-07
1.44627e-06
1.40138e-06
2.15258e-06
1.82851e-06
1.3994e-06
1.43932e-06
2.19226e-06
6.97732e-07
1.77726e-06
1.79162e-06
6.54258e-07
7.3397e-07
2.34895e-06
7.10392e-07
6.56982e-07
6.26314e-07
2.18926e-06
6.12493e-07
6.03901e-07
5.92831e-07
5.12031e-07
5.11667e-07
4.9467e-07
4.97016e-07
4.96269e-07
5.33079e-07
4.94191e-07
4.97855e-07
4.86862e-07
4.90626e-07
4.94649e-07
4.94954e-07
4.91922e-07
4.89615e-07
4.96354e-07
4.95189e-07
4.82188e-07
1.10854e-06
5.3299e-07
5.44763e-07
5.36655e-07
5.15417e-07
5.01772e-07
5.53774e-07
5.53774e-07
5.53774e-07
5.53774e-07
5.53774e-07
5.53774e-07
5.50785e-07
5.50785e-07
7.45291e-07
7.11668e-07
4.9897e-07

NodalForce_(N) 3 343 double
-1.83344e-07 -1.62638e-08 5.63985e-09
-1.17012e-06 -1.2515e-07 -1.81157e-07
0.000356385 0.000353703 0.000394693
-1.95465e-06 -2.98047e-07 -1.225e-07
-2.27472e-06 -1.61799e-06 -1.00546e-06
-7.66431e-07 -1.20118e-06 -1.29949e-06
-1.04738e-06 -3.35798e-06 -2.68308e-06
-1.23424e-06 -1.54393e-06 -1.25737e-06
-8.54049e-07 -2.03802e-06 -1.68409e-06
-3.98298e-07 -5.77602e-07 -6.44715e-07
-1.45074e-07 -5.4283e-07 -3.68969e-07
-1.46635e-06 -2.2949e-06 -1.85375e-06
-1.04155e-06 -9.97027e-07 -6.08668e-07
-1.43757e-07 -1.96146e-07 -2.0071e-07
1.22602e-07 -3.62619e-07 -3.64855e-07
1.49857e-06 -1.88361e-06 -2.08706e-06
2.77049e-07 -1.29728e-06 -1.34444e-06
-7.7641e-07 -2.10707e-07 -2.6607e-07
-0.0012281 0.000626677 -0.000173337
-3.97689e-07 -4.10203e-08 -8.68326e-08
-2.23074e-06 -1.95393e-06 -1.16355e-06
-4.35674e-06 -5.21408e-06 -3.26357e-06
-0.000487628 -0.00152879 -0.000748309
-1.86798e-06 -7.95436e-07 -2.02851e-07
-4.44938e-06 -2.27942e-06 -9.75514e-07
-1.74791e-06 -5.66325e-07 -4.13574e-07
-3.94155e-07 -7.68144e-08 -3.52622e-08
-1.94197e-06 -8.86883e-07 -2.12714e-07
-3.88676e-07 -5.59796e-08 -3.70088e-08
-6.33056e-07 -1.28114e-07 -1.09827e-07
-1.00443e-06 -3.68942e-07 -4.60691e-07
7.28192e-06 -5.63134e-06 -5.67059e-06
1.20649e-06 -4.30714e-06 -4.06198e-06
7.8202e-07 -2.86583e-06 -2.46032e-06
1.3148e-06 -2.26487e-06 -1.57712e-06
2.19738e-06 -3.3769e-06 -3.00132e-06
1.62258e-06 -1.8201e-06 -1.24661e-06
9.07791e-07 -4.95302e-06 -3.45588e-06
-3.81001e-07 -3.62172e-07 -4.3078e-07
1.4025e-07 -6.82944e-07 -9.92373e-07
-1.60508e-06 -1.01863e-06 -5.28002e-07
2.68258e-06 -1.31033e-06 -1.79065e-06
8.95939e-07 -7.82596e-08 -3.23e-07
4.4385e-07 -1.60973e-07 -1.24384e-07
1.02513e-06 -6.62832e-07 -7.01148e-07
0.000913825 0.000720128 -0.000366155
-2.06404e-07 -3.6645e-08 -6.91107e-08
-0.000250042 0.00094087 4.63425e-06
4.07516e-07 -1.49414e-07 -3.55726e-07
1.6045e-07 -2.05681e-08 -2.19163e-08
1.23983e-06 -7.26128e-07 -8.3565e-07
1.50616e-06 -1.21249e-06 -1.6139e-06
-1.07633e-07 -9.10126e-08 -2.0612e-07
1.59862e-07 -8.90789e-08 -2.36444e-07
2.76534e-08 -3.36406e-08 -9.86285e-08
1.20547e-06 -2.63208e-06 -2.20719e-06
0.0007645 0.000547682 0.00065475
-2.399e-07 -1.77997e-08 -5.82427e-09
-6.40759e-05 -4.11832e-05 -0.000300056
7.24001e-07 -1.2103e-06 -9.81584e-07
3.56589e-07 -1.03066e-07 -1.61467e-07
-1.86493e-06 -2.66968e-06 -1.45272e-06
-9.37098e-06 -7.80546e-06 -3.69364e-06
-2.20393e-06 -3.39513e-06 -2.19458e-06
-2.17509e-06 -1.0346e-06 -4.48444e-07
1.90021e-07 -3.9092e-08 -5.2443e-08
-5.81203e-07 -2.90824e-07 -1.07297e-07
3.92959e-07 -1.39739e-06 -1.62385e-06
5.31694e-07 -1.89164e-06 -1.34059e-06
-2.87512e-06 -2.66514e-06 -1.28143e-06
-5.26512e-07 -1.37916e-07 -6.01123e-08
8.09342e-08 -1.51215e-07 -1.1226e-07
-9.69283e-07 -3.67897e-07 -9.09028e-08
3.52589e-07 -5.32331e-07 -8.31862e-07
-8.70141e-07 -2.22862e-07 -2.38114e-07
0.00138468 0.00051629 0.000307736
-1.17492e-06 -6.91684e-07 -5.44123e-07
-2.13714e-07 -7.74414e-09 -7.36974e-09
2.05918e-06 -7.81989e-07 -9.65081e-07
2.22509e-06 -1.01279e-06 -9.71486e-07
1.43254e-06 -5.59892e-07 -5.32812e-07
1.34957e-06 -3.76316e-07 -4.85518e-07
1.73279e-06 -2.46878e-06 -1.89852e-06
-3.16985e-07 -1.23093e-07 -2.02656e-07
7.30511e-05 -0.00104565 0.000368467
-1.2454e-07 -4.60784e-09 1.88876e-09
9.24423e-05 -0.000673397 0.000403083
-0.00080395 -0.000340578 6.71052e-05
-0.000281308 0.000222287 -0.000148081
-4.75538e-07 -7.1776e-08 -4.50465e-08
2.61763e-07 -1.32267e-08 -2.33055e-08
5.52579e-07 -6.34001e-07 -8.42771e-07
9.76632e-07 -2.21174e-07 -7.02929e-07
6.25021e-09 -8.26521e-07 -6.88551e-07
-3.21978e-06 -7.21576e-06 -5.3005e-06
-2.39136e-06 -1.65552e-06 -6.43234e-07
-3.27834e-06 -2.22604e-06 -1.05296e-06
-8.06421e-07 -1.35934e-06 -7.74023e-07
-7.04986e-05 8.80841e-05 1.13738e-05
2.13558e-06 -1.70409e-06 -1.73871e-06
-2.76092e-06 -1.41301e-06 -4.38937e-07
-2.75051e-06 -1.69897e-06 -9.35265e-07
1.62011e-07 -8.35324e-08 -6.1812e-08
2.66072e-06 -2.37473e-06 -1.7789e-06
-4.09262e-07 -1.21254e-07 -2.75945e-08
-2.86257e-06 -1.55622e-06 -4.87048e-07
9.72306e-07 -1.87088e-06 -1.50183e-06
-2.52158e-06 -2.74702e-06 -1.48726e-06
-2.31557e-06 -2.45274e-06 -1.62406e-06
5.07692e-08 -6.6886e-09 -1.10859e-08
-4.35801e-07 -9.32281e-07 -5.72912e-07
-3.15494e-07 -1.24641e-06 -9.96595e-07
-1.18601e-06 -1.16148e-06 -9.64723e-07
-0.000727637 -0.000341114 -0.000761726
-1.30535e-06 -1.57853e-06 -7.73271e-07
-8.91621e-08 -5.39913e-08 -1.08998e-07
3.92199e-07 -1.11041e-06 -7.19872e-07
9.94476e-10 -2.972e-06 -2.27573e-06
5.55028e-07 -1.05371e-06 -6.04195e-07
-1.07114e-06 -1.08477e-06 -6.12691e-07
-1.76675e-06 -3.15131e-06 -1.88604e-06
-9.92687e-07 -2.75088e-06 -2.04397e-06
-3.1852e-07 -8.90012e-08 -4.14973e-08
0.000154476 0.000115571 0.000129969
-8.73467e-08 -2.96622e-08 -1.09775e-08
3.93046e-07 -1.04263e-06 -8.03416e-07
-2.17782e-07 -7.76859e-07 -4.34415e-07
-0.000102456 -0.000715934 -0.00039516
9.60303e-08 7.91732e-09 -1.56019e-08
2.00559e-07 -7.1611e-07 -5.93614e-07
1.05646e-06 -7.84668e-07 -6.22869e-07
1.28882e-06 -1.37711e-06 -1.13791e-06
-1.94188e-07 -8.40811e-07 -6.21862e-07
4.63991e-07 -8.95399e-07 -8.96957e-07
0.000590427 -0.00108141 -8.64685e-05
9.98573e-08 -2.00874e-08 -6.53543e-09
7.0921e-05 4.04383e-05 -0.000195756
-1.5482e-06 -1.28153e-06 -5.20726e-07
5.30765e-08 -1.09625e-06 -7.15465e-07
-6.44688e-07 -2.62685e-06 -1.7634e-06
1.60867e-06 -1.84393e-06 -1.7644e-06
-2.46126e-07 -9.08361e-07 -6.47573e-07
-7.60866e-07 -1.02837e-06 -6.13649e-07
-7.50207e-07 -1.75962e-06 -1.12165e-06
-0.0010137 0.000256897 7.40389e-05
-1.3472e-06 -1.55803e-06 -9.86209e-07
-1.04387e-06 -5.18249e-07 -1.49867e-07
-3.44023e-06 -4.53854e-06 -2.81749e-06
-8.92792e-07 -1.95497e-06 -1.16803e-06
3.52258e-07 -1.7933e-07 -1.4034e-07
1.73787e-07 -1.91246e-07 -1.21282e-07
-1.98267e-07 -3.94719e-08 2.82502e-09
-0.000260255 -0.000713687 -4.77566e-05
1.99569e-07 -7.95837e-07 -6.29648e-07
6.55781e-07 -8.04245e-07 -5.04328e-07
1.24302e-06 -6.67691e-07 -6.7592e-07
0.000484198 -0.000829908 0.00024566
-0.00136099 0.000100368 0.00050514
5.54971e-07 -4.15543e-07 -4.93256e-07
-4.89514e-07 -2.09528e-06 -1.47673e-06
-4.25533e-07 -2.94105e-07 -1.28648e-07
4.59047e-07 -1.27049e-07 -1.00685e-07
-1.51005e-06 -1.00679e-06 -3.64159e-07
4.49099e-07 -2.05564e-07 -2.93534e-07
1.04134e-06 -1.2299e-06 -1.05896e-06
1.03651e-06 -7.62796e-07 -7.48468e-07
-1.73588e-06 -1.09907e-06 -4.69471e-07
-4.49202e-07 -6.58393e-08 -6.90829e-08
1.72149e-08 -8.06903e-07 -4.67623e-07
3.30504e-07 -6.29989e-07 -3.5859e-07
-3.23108e-07 -3.08274e-07 -2.09779e-07
-2.85198e-07 -1.36062e-06 -1.09943e-06
-1.5224e-06 -1.03657e-06 -3.54094e-07
4.27702e-07 -3.37726e-08 -1.76432e-07
6.08415e-07 -1.67233e-07 -3.89784e-07
1.51965e-07 -7.74452e-08 -1.53354e-07
1.21452e-06 -7.11799e-07 -6.02989e-07
-2.42208e-07 -1.68968e-07 -6.95832e-08
-2.01713e-07 -1.61677e-06 -1.07056e-06
0.000263807 -0.000679276 -0.000534176
2.08409e-07 -1.9807e-06 -1.55007e-06
-1.55e-06 -1.53751e-06 -7.33931e-07
-1.69529e-06 -2.22026e-06 -1.12291e-06
0.000245265 -0.000782876 0.000377995
2.81637e-07 -4.3968e-08 -7.9271e-08
-6.79325e-07 -9.69378e-07 -6.09065e-07
-1.66079e-08 -1.57132e-06 -1.24123e-06
3.6242e-07 -1.00068e-06 -8.62286e-07
9.35538e-07 -6.55423e-07 -5.14508e-07
5.52652e-07 -7.65286e-07 -8.03882e-07
5.25252e-07 -5.14203e-07 -3.4214e-07
1.19066e-06 -7.74415e-07 -6.40305e-07
4.04318e-07 -3.65748e-08 -1.63111e-07
-6.95159e-07 -1.91108e-07 -1.27697e-07
-4.4576e-07 -1.93334e-07 -5.11289e-08
-4.88896e-07 -2.4157e-07 -6.94356e-08
-7.87623e-07 -1.32527e-06 -7.03513e-07
-2.56004e-07 -4.16366e-07 -2.93219e-07
-3.76237e-07 -1.29104e-06 -8.44893e-07
-5.97805e-07 -5.20436e-07 -3.02532e-07
8.02417e-07 -1.19428e-06 -7.37841e-07
0.00036128 -0.000442151 0.000174979
3.29934e-08 -2.0309e-08 -3.18379e-08
2.65326e-05 0.000425079 0.000155868
-1.16843e-07 -2.28286e-07 -1.11769e-07
1.86596e-07 -4.12957e-07 -2.25186e-07
-1.30527e-06 -6.93877e-07 -6.21366e-07
-8.48258e-07 -6.76192e-07 -3.42117e-07
-1.44001e-06 -9.35915e-07 -3.46679e-07
-9.42383e-07 -7.30525e-07 -3.49374e-07
-1.48897e-08 -1.22123e-08 -7.49182e-09
-1.3205e-06 -1.09067e-06 -4.57215e-07
8.18583e-08 -1.27525e-06 -9.83495e-07
1.14372e-06 -9.83832e-07 -7.19079e-07
1.98664e-07 -4.36971e-07 -4.73875e-07
-7.28258e-07 -2.37878e-07 -2.94499e-08
-2.31184e-07 -1.34196e-06 -9.38604e-07
-2.18286e-07 -9.28878e-08 -1.69312e-07
-8.09305e-07 -4.25091e-07 -2.28249e-07
-9.18137e-07 -1.36602e-06 -7.46556e-07
8.01198e-07 -4.22454e-07 -3.60499e-07
-1.9984e-07 -1.63485e-06 -1.17155e-06
2.93775e-07 -4.05746e-07 -2.49988e-07
-1.67776e-06 -1.39627e-06 -6.7529e-07
2.14886e-07 -1.42347e-07 -8.79938e-08
-0.000721145 -0.000174258 0.000240894
6.1187e-07 -1.63586e-07 -2.91355e-07
-6.66106e-07 -5.99714e-07 -3.32716e-07
-6.92754e-07 -2.79362e-07 -3.75729e-07
4.29417e-07 -3.02644e-07 -2.00137e-07
-8.20923e-07 -4.62533e-07 -1.48309e-07
-8.48554e-08 -2.4038e-07 -4.15104e-07
0.000726873 -0.00079208 6.84039e-06
-0.000270431 -6.6159e-05 0.0001846
-4.91651e-07 -2.0812e-07 -1.57641e-07
-3.86428e-07 -6.00544e-07 -6.52951e-07
-8.22249e-07 -4.6272e-07 -1.48044e-07
6.58065e-08 -1.20652e-06 -8.80078e-07
-1.44909e-07 -2.37153e-07 -3.87769e-07
5.38292e-07 -3.57106e-07 -5.28277e-07
-4.16768e-07 -1.43618e-06 -8.48004e-07
0.000371621 -1.9935e-05 0.000274733
-1.93324e-07 -9.53763e-07 -5.54655e-07
-3.10915e-07 -1.30398e-07 -4.29614e-09
0.000555115 -0.000493052 -1.84531e-06
4.35702e-07 -1.6646e-07 -1.36406e-07
0.00096351 -0.000263005 -0.000202813
4.37562e-08 -1.32545e-06 -7.9359e-07
-2.0799e-07 -7.89392e-07 -4.33226e-07
7.20024e-05 -0.000330257 4.15915e-05
-1.00214e-06 -4.21237e-07 -1.75461e-07
-0.000247486 -0.000286306 -0.000245788
-5.03189e-07 -5.55735e-07 -2.5296e-07
4.42787e-07 -4.39622e-07 -3.19254e-07
-3.4418e-07 -1.84478e-07 -1.34877e-07
-6.92948e-07 -1.54313e-06 -9.76139e-07
-5.0988e-07 -2.54021e-07 -3.78569e-08
-0.000652438 -0.000675802 -8.29335e-05
-6.70858e-07 -3.49667e-07 -3.95105e-07
-1.15313e-07 -1.97424e-07 -1.22986e-07
-3.58784e-07 -5.42992e-07 -3.00732e-07
-0.000558047 -0.000515385 -1.73835e-05
4.86613e-07 -9.44255e-07 -5.31453e-07
3.10109e-07 -1.16202e-06 -6.77067e-07
-4.46406e-07 -5.64773e-07 -2.87092e-07
-2.45883e-07 -4.42433e-07 -2.23388e-07
-1.65172e-07 -2.66408e-08 -3.44695e-09
0.000127882 0.000640617 -0.000280846
-0.000134809 0.000109095 0.000101624
1.2199e-05 -0.000243058 7.50418e-05
1.15089e-07 -8.73496e-07 -4.90007e-07
2.62049e-07 -3.93898e-07 -2.43693e-07
2.52193e-07 -2.72441e-07 -1.56616e-07
3.47139e-07 -4.20841e-07 -3.55804e-07
2.28028e-05 -0.000187448 9.34733e-05